       N       E                     dE             d eps       ncg     rms          rms(c)
RMM:   1    -0.423581357057E+03   -0.42358E+03   -0.58980E-07  3550   0.336E-03    0.658E-03
RMM:   2    -0.423581341414E+03    0.15642E-04   -0.24488E-07  3247   0.321E-03
   1 F= -.42960788E+03 E0= -.42960349E+03  d E =-.877935E-02  mag=     2.2616
