<?xml version="1.0" encoding="ISO-8859-1"?>
<modeling>
 <generator>
  <i name="program" type="string">vasp </i>
  <i name="version" type="string">5.4.4.18Apr17-6-g9f103f2a35  </i>
  <i name="subversion" type="string">(build Nov 30 2021 16:11:53) complex            parallel </i>
  <i name="platform" type="string">LinuxIFC </i>
  <i name="date" type="string">2022 02 10 </i>
  <i name="time" type="string">08:51:17 </i>
 </generator>
 <incar>
  <i type="string" name="SYSTEM"> metal</i>
  <i type="string" name="PREC">normal</i>
  <i type="int" name="IALGO">    48</i>
  <i type="int" name="ISPIN">     2</i>
  <i type="int" name="ICHARG">     1</i>
  <i type="int" name="NELM">   120</i>
  <i type="int" name="IBRION">    -1</i>
  <i name="EDIFFG">     -0.01000000</i>
  <i type="int" name="NSW">     1</i>
  <i type="int" name="ISIF">     0</i>
  <i type="int" name="ISYM">     2</i>
  <i name="ENCUT">    450.00000000</i>
  <i type="int" name="NBANDS">   188</i>
  <i type="string" name="LREAL">A</i>
  <i type="int" name="ISMEAR">     0</i>
  <i name="SIGMA">      0.05000000</i>
  <i type="logical" name="LWAVE"> T  </i>
  <i type="logical" name="LCHARG"> T  </i>
  <v type="int" name="KPOINT_BSE">    -1     0     0     0</v>
  <i type="int" name="NELM">   120</i>
  <i type="int" name="VOSKOWN">     0</i>
  <i type="logical" name="LWANNIER90"> T  </i>
 </incar>
 <structure name="primitive_cell" >
  <crystal>
   <varray name="basis" >
    <v>       4.26620007       0.00000000       0.00000000 </v>
    <v>       0.00000000      39.40950012       0.00000000 </v>
    <v>      -1.42206471       0.00000000       3.18109970 </v>
   </varray>
   <i name="volume">    534.83451311 </i>
   <varray name="rec_basis" >
    <v>       0.23440063       0.00000000       0.10478542 </v>
    <v>       0.00000000       0.02537459       0.00000000 </v>
    <v>       0.00000000       0.00000000       0.31435670 </v>
   </varray>
  </crystal>
  <varray name="positions" >
   <v>      -0.00027365       0.00000783       0.00000000 </v>
   <v>      -0.16675274       0.03122310       0.00000000 </v>
   <v>      -0.16698817      -0.03122806       0.00000000 </v>
   <v>       0.33324726       0.00000789       0.00000000 </v>
   <v>      -0.00010142       0.06246133       0.00000000 </v>
   <v>      -0.00033177      -0.06246764       0.00000000 </v>
   <v>       0.49989858      -0.03123031       0.00000000 </v>
   <v>       0.49972635       0.03122317       0.00000000 </v>
   <v>       0.33301183       0.06245907       0.00000000 </v>
   <v>       0.33324927      -0.06246935       0.00000000 </v>
   <v>      -0.16675073       0.09370033       0.00000000 </v>
   <v>      -0.16673474      -0.09369628       0.00000000 </v>
   <v>       0.49966823       0.09369861       0.00000000 </v>
   <v>       0.49972692      -0.09369434       0.00000000 </v>
   <v>      -0.00027308       0.12492436       0.00000000 </v>
   <v>      -0.00006145      -0.12494449       0.00000000 </v>
   <v>       0.33326526       0.12492629       0.00000000 </v>
   <v>       0.33312972      -0.12494359       0.00000000 </v>
   <v>      -0.16687028       0.15617360       0.00000000 </v>
   <v>      -0.16654271      -0.15619147       0.00000000 </v>
   <v>       0.49993855       0.15617451       0.00000000 </v>
   <v>       0.49968157      -0.15618802       0.00000000 </v>
   <v>      -0.00031843       0.18741802       0.00000000 </v>
   <v>      -0.00023492      -0.18740475       0.00000000 </v>
   <v>       0.33340337      -0.18740214       0.00000000 </v>
   <v>       0.33345729       0.18742148       0.00000000 </v>
   <v>      -0.16659663       0.21863213       0.00000000 </v>
   <v>      -0.16666332      -0.21867082       0.00000000 </v>
   <v>       0.49976508       0.21863473       0.00000000 </v>
   <v>       0.49982960      -0.21866983       0.00000000 </v>
   <v>      -0.00017040       0.24990082       0.00000000 </v>
   <v>      -0.00075831      -0.24994071       0.00000000 </v>
   <v>       0.33333668       0.24990181       0.00000000 </v>
   <v>       0.33390417      -0.24993930       0.00000000 </v>
   <v>      -0.16908599      -0.28091843       0.00000000 </v>
   <v>      -0.16609583       0.28116934       0.00000000 </v>
   <v>      -0.49783527      -0.28091963       0.00000000 </v>
   <v>       0.49924169       0.28117075       0.00000000 </v>
   <v>       0.00011866      -0.31206055       0.00000000 </v>
   <v>       0.00216473       0.31214964       0.00000000 </v>
   <v>       0.33287698      -0.31206124       0.00000000 </v>
   <v>       0.33091401       0.31214843       0.00000000 </v>
   <v>      -0.09591189      -0.34294265       0.00000000 </v>
   <v>      -0.16712302       0.34329222       0.00000000 </v>
   <v>       0.42883310      -0.34294605       0.00000000 </v>
   <v>      -0.49988134       0.34329153       0.00000000 </v>
   <v>      -0.07116696       0.37417703       0.00000000 </v>
   <v>       0.40408709       0.37417364       0.00000000 </v>
  </varray>
 </structure>
 <varray name="primitive_index" >
  <v type="int" >        1 </v>
  <v type="int" >        4 </v>
  <v type="int" >       44 </v>
  <v type="int" >        2 </v>
  <v type="int" >        5 </v>
  <v type="int" >       41 </v>
  <v type="int" >       43 </v>
  <v type="int" >        3 </v>
  <v type="int" >        6 </v>
  <v type="int" >       42 </v>
  <v type="int" >        8 </v>
  <v type="int" >       40 </v>
  <v type="int" >        7 </v>
  <v type="int" >       39 </v>
  <v type="int" >        9 </v>
  <v type="int" >       37 </v>
  <v type="int" >       10 </v>
  <v type="int" >       38 </v>
  <v type="int" >       12 </v>
  <v type="int" >       36 </v>
  <v type="int" >       11 </v>
  <v type="int" >       35 </v>
  <v type="int" >       13 </v>
  <v type="int" >       33 </v>
  <v type="int" >       34 </v>
  <v type="int" >       14 </v>
  <v type="int" >       16 </v>
  <v type="int" >       32 </v>
  <v type="int" >       15 </v>
  <v type="int" >       31 </v>
  <v type="int" >       17 </v>
  <v type="int" >       29 </v>
  <v type="int" >       18 </v>
  <v type="int" >       30 </v>
  <v type="int" >       28 </v>
  <v type="int" >       20 </v>
  <v type="int" >       27 </v>
  <v type="int" >       19 </v>
  <v type="int" >       25 </v>
  <v type="int" >       21 </v>
  <v type="int" >       26 </v>
  <v type="int" >       22 </v>
  <v type="int" >       48 </v>
  <v type="int" >       24 </v>
  <v type="int" >       47 </v>
  <v type="int" >       23 </v>
  <v type="int" >       45 </v>
  <v type="int" >       46 </v>
 </varray>
 <kpoints>
  <generation param="Gamma">
   <v type="int" name="divisions">       6        1        2 </v>
   <v name="usershift">      0.00000000       0.00000000       0.00000000 </v>
   <v name="genvec1">      0.16666667       0.00000000      -0.00000000 </v>
   <v name="genvec2">      0.00000000       1.00000000       0.00000000 </v>
   <v name="genvec3">      0.00000000       0.00000000       0.50000000 </v>
   <v name="shift">      0.00000000       0.00000000       0.00000000 </v>
  </generation>
  <varray name="kpointlist" >
   <v>       0.00000000       0.00000000       0.00000000 </v>
   <v>       0.16666667       0.00000000       0.00000000 </v>
   <v>       0.33333333       0.00000000       0.00000000 </v>
   <v>       0.50000000       0.00000000       0.00000000 </v>
   <v>       0.00000000       0.00000000       0.50000000 </v>
   <v>       0.16666667       0.00000000       0.50000000 </v>
   <v>       0.33333333       0.00000000       0.50000000 </v>
   <v>       0.50000000       0.00000000       0.50000000 </v>
  </varray>
  <varray name="weights" >
   <v>       0.08333333 </v>
   <v>       0.16666667 </v>
   <v>       0.16666667 </v>
   <v>       0.08333333 </v>
   <v>       0.08333333 </v>
   <v>       0.16666667 </v>
   <v>       0.16666667 </v>
   <v>       0.08333333 </v>
  </varray>
 </kpoints>
 <parameters>
  <separator name="general" >
   <i type="string" name="SYSTEM">metal</i>
   <i type="logical" name="LCOMPAT"> F  </i>
  </separator>
  <separator name="electronic" >
   <i type="string" name="PREC">normal</i>
   <i name="ENMAX">    450.00000000</i>
   <i name="ENAUG">    644.87300000</i>
   <i name="EDIFF">      0.00010000</i>
   <i type="int" name="IALGO">    48</i>
   <i type="int" name="IWAVPR">    10</i>
   <i type="int" name="NBANDS">   188</i>
   <i name="NELECT">    200.00000000</i>
   <i type="int" name="TURBO">     0</i>
   <i type="int" name="IRESTART">     0</i>
   <i type="int" name="NREBOOT">     0</i>
   <i type="int" name="NMIN">     0</i>
   <i name="EREF">      0.00000000</i>
   <separator name="electronic smearing" >
    <i type="int" name="ISMEAR">     0</i>
    <i name="SIGMA">      0.05000000</i>
    <i name="KSPACING">      0.50000000</i>
    <i type="logical" name="KGAMMA"> T  </i>
   </separator>
   <separator name="electronic projectors" >
    <i type="logical" name="LREAL"> T  </i>
    <v name="ROPT">     -0.00050000     -0.00050000</v>
    <i type="int" name="LMAXPAW">  -100</i>
    <i type="int" name="LMAXMIX">     2</i>
    <i type="logical" name="NLSPLINE"> F  </i>
   </separator>
   <separator name="electronic startup" >
    <i type="int" name="ISTART">     1</i>
    <i type="int" name="ICHARG">     1</i>
    <i type="int" name="INIWAV">     1</i>
   </separator>
   <separator name="electronic spin" >
    <i type="int" name="ISPIN">     2</i>
    <i type="logical" name="LNONCOLLINEAR"> F  </i>
    <v name="MAGMOM">      1.00000000      1.00000000      1.00000000      1.00000000      1.00000000      1.00000000      1.00000000      1.00000000      1.00000000      1.00000000      1.00000000      1.00000000      1.00000000      1.00000000      1.00000000      1.00000000      1.00000000      1.00000000      1.00000000      1.00000000
      1.00000000      1.00000000      1.00000000      1.00000000      1.00000000      1.00000000      1.00000000      1.00000000      1.00000000      1.00000000      1.00000000      1.00000000      1.00000000      1.00000000      1.00000000      1.00000000      1.00000000      1.00000000      1.00000000      1.00000000
      1.00000000      1.00000000      1.00000000      1.00000000      1.00000000      1.00000000      1.00000000      1.00000000</v>
    <i name="NUPDOWN">     -1.00000000</i>
    <i type="logical" name="LSORBIT"> F  </i>
    <v name="SAXIS">      0.00000000      0.00000000      1.00000000</v>
    <i type="logical" name="LSPIRAL"> F  </i>
    <v name="QSPIRAL">      0.00000000      0.00000000      0.00000000</v>
    <i type="logical" name="LZEROZ"> F  </i>
   </separator>
   <separator name="electronic exchange-correlation" >
    <i type="logical" name="LASPH"> F  </i>
    <i type="logical" name="LMETAGGA"> F  </i>
   </separator>
   <separator name="electronic convergence" >
    <i type="int" name="NELM">   120</i>
    <i type="int" name="NELMDL">     0</i>
    <i type="int" name="NELMIN">     2</i>
    <i name="ENINI">    450.00000000</i>
    <separator name="electronic convergence detail" >
     <i type="logical" name="LDIAG"> T  </i>
     <i type="logical" name="LSUBROT"> F  </i>
     <i name="WEIMIN">      0.00000000</i>
     <i name="EBREAK">      0.00000013</i>
     <i name="DEPER">      0.30000000</i>
     <i type="int" name="NRMM">     4</i>
     <i name="TIME">      0.40000000</i>
    </separator>
   </separator>
   <separator name="electronic mixer" >
    <i name="AMIX">      0.40000000</i>
    <i name="BMIX">      1.00000000</i>
    <i name="AMIN">      0.10000000</i>
    <i name="AMIX_MAG">      1.60000000</i>
    <i name="BMIX_MAG">      1.00000000</i>
    <separator name="electronic mixer details" >
     <i type="int" name="IMIX">     4</i>
     <i type="logical" name="MIXFIRST"> F  </i>
     <i type="int" name="MAXMIX">   -45</i>
     <i name="WC">    100.00000000</i>
     <i type="int" name="INIMIX">     1</i>
     <i type="int" name="MIXPRE">     1</i>
     <i type="int" name="MREMOVE">     5</i>
    </separator>
   </separator>
   <separator name="electronic dipolcorrection" >
    <i type="logical" name="LDIPOL"> F  </i>
    <i type="logical" name="LMONO"> F  </i>
    <i type="int" name="IDIPOL">     0</i>
    <i name="EPSILON">      1.00000000</i>
    <v name="DIPOL">   -100.00000000   -100.00000000   -100.00000000</v>
    <i name="EFIELD">      0.00000000</i>
   </separator>
  </separator>
  <separator name="grids" >
   <i type="int" name="NGX">    24</i>
   <i type="int" name="NGY">   210</i>
   <i type="int" name="NGZ">    18</i>
   <i type="int" name="NGXF">    48</i>
   <i type="int" name="NGYF">   420</i>
   <i type="int" name="NGZF">    36</i>
   <i type="logical" name="ADDGRID"> F  </i>
  </separator>
  <separator name="ionic" >
   <i type="int" name="NSW">     1</i>
   <i type="int" name="IBRION">    -1</i>
   <i type="int" name="MDALGO">     0</i>
   <i type="int" name="ISIF">     0</i>
   <i name="PSTRESS">      0.00000000</i>
   <i name="EDIFFG">     -0.01000000</i>
   <i type="int" name="NFREE">     0</i>
   <i name="POTIM">      0.50000000</i>
   <i name="SMASS">     -3.00000000</i>
   <i name="SCALEE">      1.00000000</i>
  </separator>
  <separator name="ionic md" >
   <i name="TEBEG">      0.00010000</i>
   <i name="TEEND">      0.00010000</i>
   <i type="int" name="NBLOCK">     1</i>
   <i type="int" name="KBLOCK">     1</i>
   <i type="int" name="NPACO">   256</i>
   <i name="APACO">     16.00000000</i>
  </separator>
  <separator name="symmetry" >
   <i type="int" name="ISYM">     2</i>
   <i name="SYMPREC">      0.00001000</i>
  </separator>
  <separator name="dos" >
   <i type="int" name="LORBIT">     0</i>
   <v name="RWIGS">     -1.00000000     -1.00000000</v>
   <i type="int" name="NEDOS">   301</i>
   <i name="EMIN">     10.00000000</i>
   <i name="EMAX">    -10.00000000</i>
   <i name="EFERMI">      0.00000000</i>
  </separator>
  <separator name="writing" >
   <i type="int" name="NWRITE">     2</i>
   <i type="logical" name="LWAVE"> T  </i>
   <i type="logical" name="LDOWNSAMPLE"> F  </i>
   <i type="logical" name="LCHARG"> T  </i>
   <i type="logical" name="LPARD"> F  </i>
   <i type="logical" name="LVTOT"> F  </i>
   <i type="logical" name="LVHAR"> F  </i>
   <i type="logical" name="LELF"> F  </i>
   <i type="logical" name="LOPTICS"> F  </i>
   <v name="STM">      0.00000000      0.00000000      0.00000000      0.00000000      0.00000000      0.00000000      0.00000000</v>
  </separator>
  <separator name="performance" >
   <i type="int" name="NPAR">     4</i>
   <i type="int" name="NSIM">     4</i>
   <i type="int" name="NBLK">    -1</i>
   <i type="logical" name="LPLANE"> T  </i>
   <i type="logical" name="LSCALAPACK"> T  </i>
   <i type="logical" name="LSCAAWARE"> F  </i>
   <i type="logical" name="LSCALU"> F  </i>
   <i type="logical" name="LASYNC"> F  </i>
   <i type="logical" name="LORBITALREAL"> F  </i>
  </separator>
  <separator name="miscellaneous" >
   <i type="int" name="IDIOT">     3</i>
   <i type="int" name="ISPECIAL">     0</i>
   <i type="logical" name="LMUSIC"> F  </i>
   <v name="POMASS">     12.01100000     16.00000000</v>
   <v name="DARWINR">      0.00000000      0.00000000</v>
   <v name="DARWINV">      1.00000000      1.00000000</v>
   <i type="logical" name="LCORR"> T  </i>
  </separator>
  <i type="logical" name="GGA_COMPAT"> T  </i>
  <i type="logical" name="LBERRY"> F  </i>
  <i type="int" name="ICORELEVEL">     0</i>
  <i type="logical" name="LDAU"> F  </i>
  <i type="int" name="I_CONSTRAINED_M">     0</i>
  <separator name="electronic exchange-correlation" >
   <i type="string" name="GGA">--</i>
   <i type="int" name="VOSKOWN">     0</i>
   <i type="logical" name="LHFCALC"> F  </i>
   <i type="string" name="PRECFOCK"></i>
   <i type="logical" name="LSYMGRAD"> F  </i>
   <i type="logical" name="LHFONE"> F  </i>
   <i type="logical" name="LRHFCALC"> F  </i>
   <i type="logical" name="LTHOMAS"> F  </i>
   <i type="logical" name="LMODELHF"> F  </i>
   <i name="ENCUT4O">     -1.00000000</i>
   <i type="int" name="EXXOEP">     0</i>
   <i type="int" name="FOURORBIT">     0</i>
   <i name="AEXX">      0.00000000</i>
   <i name="HFALPHA">      0.00000000</i>
   <i name="MCALPHA">      0.00000000</i>
   <i name="ALDAX">      1.00000000</i>
   <i name="AGGAX">      1.00000000</i>
   <i name="ALDAC">      1.00000000</i>
   <i name="AGGAC">      1.00000000</i>
   <i type="int" name="NKREDX">     1</i>
   <i type="int" name="NKREDY">     1</i>
   <i type="int" name="NKREDZ">     1</i>
   <i type="logical" name="SHIFTRED"> F  </i>
   <i type="logical" name="ODDONLY"> F  </i>
   <i type="logical" name="EVENONLY"> F  </i>
   <i type="int" name="LMAXFOCK">     0</i>
   <i type="int" name="NMAXFOCKAE">     0</i>
   <i type="logical" name="LFOCKAEDFT"> F  </i>
   <i name="HFSCREEN">      0.00000000</i>
   <i name="HFSCREENC">      0.00000000</i>
   <i type="int" name="NBANDSGWLOW">     0</i>
  </separator>
  <separator name="vdW DFT" >
   <i type="logical" name="LUSE_VDW"> F  </i>
   <i name="Zab_VDW">     -0.84910000</i>
   <i name="PARAM1">      0.12340000</i>
   <i name="PARAM2">      1.00000000</i>
   <i name="PARAM3">      0.00000000</i>
  </separator>
  <separator name="model GW" >
   <i type="int" name="MODEL_GW">     0</i>
   <i name="MODEL_EPS0">      6.68543141</i>
   <i name="MODEL_ALPHA">      1.00000000</i>
  </separator>
  <separator name="linear response parameters" >
   <i type="logical" name="LEPSILON"> F  </i>
   <i type="logical" name="LRPA"> F  </i>
   <i type="logical" name="LNABLA"> F  </i>
   <i type="logical" name="LVEL"> F  </i>
   <i type="int" name="KINTER">     0</i>
   <i name="CSHIFT">      0.10000000</i>
   <i name="OMEGAMAX">     -1.00000000</i>
   <i name="DEG_THRESHOLD">      0.00200000</i>
   <i name="RTIME">     -0.10000000</i>
   <i name="WPLASMAI">      0.00000000</i>
   <v name="DFIELD">      0.00000000      0.00000000      0.00000000</v>
   <v name="WPLASMA">      0.00000000      0.00000000      0.00000000      0.00000000      0.00000000      0.00000000      0.00000000      0.00000000      0.00000000</v>
  </separator>
  <separator name="orbital magnetization" >
   <i type="logical" name="NUCIND"> F  </i>
   <v name="MAGPOS">      0.00000000      0.00000000      0.00000000</v>
   <i type="logical" name="LNICSALL"> T  </i>
   <i type="logical" name="ORBITALMAG"> F  </i>
   <i type="logical" name="LMAGBLOCH"> F  </i>
   <i type="logical" name="LCHIMAG"> F  </i>
   <i type="logical" name="LGAUGE"> T  </i>
   <i type="int" name="MAGATOM">     0</i>
   <v name="MAGDIPOL">      0.00000000      0.00000000      0.00000000</v>
   <v name="AVECCONST">      0.00000000      0.00000000      0.00000000</v>
  </separator>
  <separator name="response functions" >
   <i type="logical" name="LADDER"> F  </i>
   <i type="logical" name="LRPAFORCE"> F  </i>
   <i type="logical" name="LFXC"> F  </i>
   <i type="logical" name="LHARTREE"> T  </i>
   <i type="int" name="IBSE">     0</i>
   <v type="int" name="KPOINT">    -1     0     0     0</v>
   <i type="logical" name="LTCTE"> F  </i>
   <i type="logical" name="LTETE"> F  </i>
   <i type="logical" name="LTRIPLET"> F  </i>
   <i type="logical" name="LFXCEPS"> F  </i>
   <i type="logical" name="LFXHEG"> F  </i>
   <i type="int" name="NATURALO">     2</i>
   <i type="logical" name="L2ORDER"> F  </i>
   <i type="logical" name="LMP2LT"> F  </i>
   <i type="logical" name="LUSEW"> F  </i>
   <i name="ENCUTGW">     -2.00000000</i>
   <i name="ENCUTGWSOFT">     -2.00000000</i>
   <i name="ENCUTLF">     -1.00000000</i>
   <i type="int" name="LMAXMP2">    -1</i>
   <i name="SCISSOR">      0.00000000</i>
   <i type="int" name="NOMEGA">     0</i>
   <i type="int" name="NOMEGAR">     0</i>
   <i type="int" name="NBANDSGW">    -1</i>
   <i type="int" name="NBANDSO">    -1</i>
   <i type="int" name="NBANDSV">    -1</i>
   <i type="int" name="NELM">   120</i>
   <i type="int" name="NELMHF">     1</i>
   <i type="int" name="DIM">     3</i>
   <i type="int" name="ANTIRES">     0</i>
   <i name="OMEGAMAX">    -30.00000000</i>
   <i name="OMEGAMIN">    -30.00000000</i>
   <i name="OMEGATL">   -200.00000000</i>
   <i type="int" name="OMEGAGRID">   140</i>
   <i name="CSHIFT">     -0.10000000</i>
   <i type="logical" name="SELFENERGY"> F  </i>
   <i type="logical" name="LSPECTRAL"> F  </i>
   <i type="logical" name="LSPECTRALGW"> F  </i>
   <i type="logical" name="LSINGLES"> F  </i>
   <i type="logical" name="LFERMIGW"> F  </i>
   <i type="logical" name="ODDONLYGW"> F  </i>
   <i type="logical" name="EVENONLYGW"> F  </i>
   <i type="int" name="NKREDLFX">     1</i>
   <i type="int" name="NKREDLFY">     1</i>
   <i type="int" name="NKREDLFZ">     1</i>
   <i type="int" name="MAXMEM">  2800</i>
   <i type="int" name="TELESCOPE">     0</i>
   <i type="int" name="TAUPAR">     1</i>
   <i type="int" name="OMEGAPAR">    -1</i>
   <i name="LAMBDA">      1.00000000</i>
  </separator>
  <separator name="External order field" >
   <i name="OFIELD_KAPPA">      0.00000000</i>
   <v name="OFIELD_K">      0.00000000      0.00000000      0.00000000</v>
   <i name="OFIELD_Q6_NEAR">      0.00000000</i>
   <i name="OFIELD_Q6_FAR">      0.00000000</i>
   <i name="OFIELD_A">      0.00000000</i>
  </separator>
  <separator name="solvation model" >
   <i type="logical" name="LSOL"> F  </i>
  </separator>
 </parameters>
 <atominfo>
  <atoms>      48 </atoms>
  <types>       2 </types>
  <array name="atoms" >
   <dimension dim="1">ion</dimension>
   <field type="string">element</field>
   <field type="int">atomtype</field>
   <set>
    <rc><c>C </c><c>   1</c></rc>
    <rc><c>C </c><c>   1</c></rc>
    <rc><c>C </c><c>   1</c></rc>
    <rc><c>C </c><c>   1</c></rc>
    <rc><c>C </c><c>   1</c></rc>
    <rc><c>C </c><c>   1</c></rc>
    <rc><c>C </c><c>   1</c></rc>
    <rc><c>C </c><c>   1</c></rc>
    <rc><c>C </c><c>   1</c></rc>
    <rc><c>C </c><c>   1</c></rc>
    <rc><c>C </c><c>   1</c></rc>
    <rc><c>C </c><c>   1</c></rc>
    <rc><c>C </c><c>   1</c></rc>
    <rc><c>C </c><c>   1</c></rc>
    <rc><c>C </c><c>   1</c></rc>
    <rc><c>C </c><c>   1</c></rc>
    <rc><c>C </c><c>   1</c></rc>
    <rc><c>C </c><c>   1</c></rc>
    <rc><c>C </c><c>   1</c></rc>
    <rc><c>C </c><c>   1</c></rc>
    <rc><c>C </c><c>   1</c></rc>
    <rc><c>C </c><c>   1</c></rc>
    <rc><c>C </c><c>   1</c></rc>
    <rc><c>C </c><c>   1</c></rc>
    <rc><c>C </c><c>   1</c></rc>
    <rc><c>C </c><c>   1</c></rc>
    <rc><c>C </c><c>   1</c></rc>
    <rc><c>C </c><c>   1</c></rc>
    <rc><c>C </c><c>   1</c></rc>
    <rc><c>C </c><c>   1</c></rc>
    <rc><c>C </c><c>   1</c></rc>
    <rc><c>C </c><c>   1</c></rc>
    <rc><c>C </c><c>   1</c></rc>
    <rc><c>C </c><c>   1</c></rc>
    <rc><c>C </c><c>   1</c></rc>
    <rc><c>C </c><c>   1</c></rc>
    <rc><c>C </c><c>   1</c></rc>
    <rc><c>C </c><c>   1</c></rc>
    <rc><c>C </c><c>   1</c></rc>
    <rc><c>C </c><c>   1</c></rc>
    <rc><c>C </c><c>   1</c></rc>
    <rc><c>C </c><c>   1</c></rc>
    <rc><c>C </c><c>   1</c></rc>
    <rc><c>C </c><c>   1</c></rc>
    <rc><c>O </c><c>   2</c></rc>
    <rc><c>O </c><c>   2</c></rc>
    <rc><c>O </c><c>   2</c></rc>
    <rc><c>O </c><c>   2</c></rc>
   </set>
  </array>
  <array name="atomtypes" >
   <dimension dim="1">type</dimension>
   <field type="int">atomspertype</field>
   <field type="string">element</field>
   <field>mass</field>
   <field>valence</field>
   <field type="string">pseudopotential</field>
   <set>
    <rc><c>  44</c><c>C </c><c>     12.01100000</c><c>      4.00000000</c><c>  PAW_PBE C 08Apr2002                   </c></rc>
    <rc><c>   4</c><c>O </c><c>     16.00000000</c><c>      6.00000000</c><c>  PAW_PBE O 08Apr2002                   </c></rc>
   </set>
  </array>
 </atominfo>
 <structure name="initialpos" >
  <crystal>
   <varray name="basis" >
    <v>       4.26620007       0.00000000       0.00000000 </v>
    <v>       0.00000000      39.40950012       0.00000000 </v>
    <v>      -1.42206471       0.00000000       3.18109970 </v>
   </varray>
   <i name="volume">    534.83451311 </i>
   <varray name="rec_basis" >
    <v>       0.23440063       0.00000000       0.10478542 </v>
    <v>       0.00000000       0.02537459       0.00000000 </v>
    <v>       0.00000000       0.00000000       0.31435670 </v>
   </varray>
  </crystal>
  <varray name="positions" >
   <v>       0.99972635       0.00000783       0.00000000 </v>
   <v>       0.33324726       0.00000789       0.00000000 </v>
   <v>       0.49972635       0.03122317       0.00000000 </v>
   <v>       0.83324726       0.03122310       0.00000000 </v>
   <v>       0.99989858       0.06246133       0.00000000 </v>
   <v>       0.33301183       0.06245907       0.00000000 </v>
   <v>       0.49966823       0.09369861       0.00000000 </v>
   <v>       0.83324927       0.09370033       0.00000000 </v>
   <v>       0.99972692       0.12492436       0.00000000 </v>
   <v>       0.33326526       0.12492629       0.00000000 </v>
   <v>       0.49993855       0.15617451       0.00000000 </v>
   <v>       0.83312972       0.15617360       0.00000000 </v>
   <v>       0.99968157       0.18741802       0.00000000 </v>
   <v>       0.33345729       0.18742148       0.00000000 </v>
   <v>       0.49976508       0.21863473       0.00000000 </v>
   <v>       0.83340337       0.21863213       0.00000000 </v>
   <v>       0.99982960       0.24990082       0.00000000 </v>
   <v>       0.33333668       0.24990181       0.00000000 </v>
   <v>       0.49924169       0.28117075       0.00000000 </v>
   <v>       0.83390417       0.28116934       0.00000000 </v>
   <v>       0.00216473       0.31214964       0.00000000 </v>
   <v>       0.33091401       0.31214843       0.00000000 </v>
   <v>       0.50011866       0.34329153       0.00000000 </v>
   <v>       0.83287698       0.34329222       0.00000000 </v>
   <v>       0.00011866       0.68793945       0.00000000 </v>
   <v>       0.33287698       0.68793876       0.00000000 </v>
   <v>       0.50216473       0.71908037       0.00000000 </v>
   <v>       0.83091401       0.71908157       0.00000000 </v>
   <v>       0.99924169       0.75005929       0.00000000 </v>
   <v>       0.33390417       0.75006070       0.00000000 </v>
   <v>       0.49982960       0.78133017       0.00000000 </v>
   <v>       0.83333668       0.78132918       0.00000000 </v>
   <v>       0.99976508       0.81259525       0.00000000 </v>
   <v>       0.33340337       0.81259786       0.00000000 </v>
   <v>       0.49968157       0.84381198       0.00000000 </v>
   <v>       0.83345729       0.84380853       0.00000000 </v>
   <v>       0.99993855       0.87505551       0.00000000 </v>
   <v>       0.33312972       0.87505641       0.00000000 </v>
   <v>       0.49972692       0.90630566       0.00000000 </v>
   <v>       0.83326526       0.90630372       0.00000000 </v>
   <v>       0.99966823       0.93753236       0.00000000 </v>
   <v>       0.33324927       0.93753065       0.00000000 </v>
   <v>       0.49989858       0.96876969       0.00000000 </v>
   <v>       0.83301183       0.96877194       0.00000000 </v>
   <v>       0.92883304       0.37417703       0.00000000 </v>
   <v>       0.40408709       0.37417364       0.00000000 </v>
   <v>       0.42883310       0.65705395       0.00000000 </v>
   <v>       0.90408811       0.65705735       0.00000000 </v>
  </varray>
  <varray name="selective"  type="logical" >
   <v type="logical" >  T  T  F </v>
   <v type="logical" >  T  T  F </v>
   <v type="logical" >  T  T  F </v>
   <v type="logical" >  T  T  F </v>
   <v type="logical" >  T  T  F </v>
   <v type="logical" >  T  T  F </v>
   <v type="logical" >  T  T  F </v>
   <v type="logical" >  T  T  F </v>
   <v type="logical" >  T  T  F </v>
   <v type="logical" >  T  T  F </v>
   <v type="logical" >  T  T  F </v>
   <v type="logical" >  T  T  F </v>
   <v type="logical" >  T  T  F </v>
   <v type="logical" >  T  T  F </v>
   <v type="logical" >  T  T  F </v>
   <v type="logical" >  T  T  F </v>
   <v type="logical" >  T  T  F </v>
   <v type="logical" >  T  T  F </v>
   <v type="logical" >  T  T  F </v>
   <v type="logical" >  T  T  F </v>
   <v type="logical" >  T  T  F </v>
   <v type="logical" >  T  T  F </v>
   <v type="logical" >  T  T  F </v>
   <v type="logical" >  T  T  F </v>
   <v type="logical" >  T  T  F </v>
   <v type="logical" >  T  T  F </v>
   <v type="logical" >  T  T  F </v>
   <v type="logical" >  T  T  F </v>
   <v type="logical" >  T  T  F </v>
   <v type="logical" >  T  T  F </v>
   <v type="logical" >  T  T  F </v>
   <v type="logical" >  T  T  F </v>
   <v type="logical" >  T  T  F </v>
   <v type="logical" >  T  T  F </v>
   <v type="logical" >  T  T  F </v>
   <v type="logical" >  T  T  F </v>
   <v type="logical" >  T  T  F </v>
   <v type="logical" >  T  T  F </v>
   <v type="logical" >  T  T  F </v>
   <v type="logical" >  T  T  F </v>
   <v type="logical" >  T  T  F </v>
   <v type="logical" >  T  T  F </v>
   <v type="logical" >  T  T  F </v>
   <v type="logical" >  T  T  F </v>
   <v type="logical" >  T  T  F </v>
   <v type="logical" >  T  T  F </v>
   <v type="logical" >  T  T  F </v>
   <v type="logical" >  T  T  F </v>
  </varray>
  <varray name="velocities" >
   <v>       0.00000000       0.00000000       0.00000000 </v>
   <v>       0.00000000       0.00000000       0.00000000 </v>
   <v>       0.00000000       0.00000000       0.00000000 </v>
   <v>       0.00000000       0.00000000       0.00000000 </v>
   <v>       0.00000000       0.00000000       0.00000000 </v>
   <v>       0.00000000       0.00000000       0.00000000 </v>
   <v>       0.00000000       0.00000000       0.00000000 </v>
   <v>       0.00000000       0.00000000       0.00000000 </v>
   <v>       0.00000000       0.00000000       0.00000000 </v>
   <v>       0.00000000       0.00000000       0.00000000 </v>
   <v>       0.00000000       0.00000000       0.00000000 </v>
   <v>       0.00000000       0.00000000       0.00000000 </v>
   <v>       0.00000000       0.00000000       0.00000000 </v>
   <v>       0.00000000       0.00000000       0.00000000 </v>
   <v>       0.00000000       0.00000000       0.00000000 </v>
   <v>       0.00000000       0.00000000       0.00000000 </v>
   <v>       0.00000000       0.00000000       0.00000000 </v>
   <v>       0.00000000       0.00000000       0.00000000 </v>
   <v>       0.00000000       0.00000000       0.00000000 </v>
   <v>       0.00000000       0.00000000       0.00000000 </v>
   <v>       0.00000000       0.00000000       0.00000000 </v>
   <v>       0.00000000       0.00000000       0.00000000 </v>
   <v>       0.00000000       0.00000000       0.00000000 </v>
   <v>       0.00000000       0.00000000       0.00000000 </v>
   <v>       0.00000000       0.00000000       0.00000000 </v>
   <v>       0.00000000       0.00000000       0.00000000 </v>
   <v>       0.00000000       0.00000000       0.00000000 </v>
   <v>       0.00000000       0.00000000       0.00000000 </v>
   <v>       0.00000000       0.00000000       0.00000000 </v>
   <v>       0.00000000       0.00000000       0.00000000 </v>
   <v>       0.00000000       0.00000000       0.00000000 </v>
   <v>       0.00000000       0.00000000       0.00000000 </v>
   <v>       0.00000000       0.00000000       0.00000000 </v>
   <v>       0.00000000       0.00000000       0.00000000 </v>
   <v>       0.00000000       0.00000000       0.00000000 </v>
   <v>       0.00000000       0.00000000       0.00000000 </v>
   <v>       0.00000000       0.00000000       0.00000000 </v>
   <v>       0.00000000       0.00000000       0.00000000 </v>
   <v>       0.00000000       0.00000000       0.00000000 </v>
   <v>       0.00000000       0.00000000       0.00000000 </v>
   <v>       0.00000000       0.00000000       0.00000000 </v>
   <v>       0.00000000       0.00000000       0.00000000 </v>
   <v>       0.00000000       0.00000000       0.00000000 </v>
   <v>       0.00000000       0.00000000       0.00000000 </v>
   <v>       0.00000000       0.00000000       0.00000000 </v>
   <v>       0.00000000       0.00000000       0.00000000 </v>
   <v>       0.00000000       0.00000000       0.00000000 </v>
   <v>       0.00000000       0.00000000       0.00000000 </v>
  </varray>
  <nose>
   <v>      -3.00000000       0.00000000       0.00010000       0.00010000 </v>
  </nose>
 </structure>
 <calculation>
  <scstep>
   <time name="diag">    1.70    1.71</time>
   <time name="diis">    4.72    4.73</time>
   <time name="orth">    0.43    0.43</time>
   <time name="total">    7.43    7.45</time>
   <energy>
    <i name="alphaZ">    372.54520999 </i>
    <i name="ewald">  38165.18647767 </i>
    <i name="hartreedc"> -46379.33507858 </i>
    <i name="XCdc">    720.75226042 </i>
    <i name="pawpsdc">  20731.40712129 </i>
    <i name="pawaedc"> -20768.83592846 </i>
    <i name="eentropy">     -0.00880785 </i>
    <i name="bandstr">  -1469.00469479 </i>
    <i name="atom">   8203.71208324 </i>
    <i name="e_fr_energy">   -423.58135706 </i>
    <i name="e_wo_entrp">   -423.57254921 </i>
    <i name="e_0_energy">   -423.57695313 </i>
   </energy>
  </scstep>
  <scstep>
   <time name="diag">    1.70    1.70</time>
   <time name="diis">    4.48    4.49</time>
   <time name="orth">    0.43    0.43</time>
   <time name="total">    6.82    6.83</time>
   <energy>
    <i name="alphaZ">    372.54520999 </i>
    <i name="ewald">  38165.18647767 </i>
    <i name="hartreedc"> -46379.38395814 </i>
    <i name="XCdc">    720.75215910 </i>
    <i name="pawpsdc">  20731.41435769 </i>
    <i name="pawaedc"> -20768.84316026 </i>
    <i name="eentropy">     -0.00877935 </i>
    <i name="bandstr">  -1468.95573137 </i>
    <i name="atom">   8203.71208324 </i>
    <i name="e_fr_energy">   -423.58134141 </i>
    <i name="e_wo_entrp">   -423.57256207 </i>
    <i name="e_0_energy">   -423.57695174 </i>
   </energy>
  </scstep>
  <structure>
   <crystal>
    <varray name="basis" >
     <v>       4.26620007       0.00000000       0.00000000 </v>
     <v>       0.00000000      39.40950012       0.00000000 </v>
     <v>      -1.42206471       0.00000000       3.18109970 </v>
    </varray>
    <i name="volume">    534.83451311 </i>
    <varray name="rec_basis" >
     <v>       0.23440063       0.00000000       0.10478542 </v>
     <v>       0.00000000       0.02537459       0.00000000 </v>
     <v>       0.00000000       0.00000000       0.31435670 </v>
    </varray>
   </crystal>
   <varray name="positions" >
    <v>       0.99972635       0.00000783       0.00000000 </v>
    <v>       0.33324726       0.00000789       0.00000000 </v>
    <v>       0.49972635       0.03122317       0.00000000 </v>
    <v>       0.83324726       0.03122310       0.00000000 </v>
    <v>       0.99989858       0.06246133       0.00000000 </v>
    <v>       0.33301183       0.06245907       0.00000000 </v>
    <v>       0.49966823       0.09369861       0.00000000 </v>
    <v>       0.83324927       0.09370033       0.00000000 </v>
    <v>       0.99972692       0.12492436       0.00000000 </v>
    <v>       0.33326526       0.12492629       0.00000000 </v>
    <v>       0.49993855       0.15617451       0.00000000 </v>
    <v>       0.83312972       0.15617360       0.00000000 </v>
    <v>       0.99968157       0.18741802       0.00000000 </v>
    <v>       0.33345729       0.18742148       0.00000000 </v>
    <v>       0.49976508       0.21863473       0.00000000 </v>
    <v>       0.83340337       0.21863213       0.00000000 </v>
    <v>       0.99982960       0.24990082       0.00000000 </v>
    <v>       0.33333668       0.24990181       0.00000000 </v>
    <v>       0.49924169       0.28117075       0.00000000 </v>
    <v>       0.83390417       0.28116934       0.00000000 </v>
    <v>       0.00216473       0.31214964       0.00000000 </v>
    <v>       0.33091401       0.31214843       0.00000000 </v>
    <v>       0.50011866       0.34329153       0.00000000 </v>
    <v>       0.83287698       0.34329222       0.00000000 </v>
    <v>       0.00011866       0.68793945       0.00000000 </v>
    <v>       0.33287698       0.68793876       0.00000000 </v>
    <v>       0.50216473       0.71908037       0.00000000 </v>
    <v>       0.83091401       0.71908157       0.00000000 </v>
    <v>       0.99924169       0.75005929       0.00000000 </v>
    <v>       0.33390417       0.75006070       0.00000000 </v>
    <v>       0.49982960       0.78133017       0.00000000 </v>
    <v>       0.83333668       0.78132918       0.00000000 </v>
    <v>       0.99976508       0.81259525       0.00000000 </v>
    <v>       0.33340337       0.81259786       0.00000000 </v>
    <v>       0.49968157       0.84381198       0.00000000 </v>
    <v>       0.83345729       0.84380853       0.00000000 </v>
    <v>       0.99993855       0.87505551       0.00000000 </v>
    <v>       0.33312972       0.87505641       0.00000000 </v>
    <v>       0.49972692       0.90630566       0.00000000 </v>
    <v>       0.83326526       0.90630372       0.00000000 </v>
    <v>       0.99966823       0.93753236       0.00000000 </v>
    <v>       0.33324927       0.93753065       0.00000000 </v>
    <v>       0.49989858       0.96876969       0.00000000 </v>
    <v>       0.83301183       0.96877194       0.00000000 </v>
    <v>       0.92883304       0.37417703       0.00000000 </v>
    <v>       0.40408709       0.37417364       0.00000000 </v>
    <v>       0.42883310       0.65705395       0.00000000 </v>
    <v>       0.90408811       0.65705735       0.00000000 </v>
   </varray>
  </structure>
  <varray name="forces" >
   <v>       0.00502307       0.00718357      -0.00827982 </v>
   <v>      -0.00953479       0.00511505       0.00792173 </v>
   <v>       0.00502307      -0.00718357      -0.00827982 </v>
   <v>      -0.00953479      -0.00511505       0.00792173 </v>
   <v>       0.02047577       0.00513674      -0.01804963 </v>
   <v>      -0.01758262       0.00643585       0.01837259 </v>
   <v>       0.00623598       0.00520375      -0.00519513 </v>
   <v>      -0.00218376       0.00216823       0.00527807 </v>
   <v>       0.01183574      -0.00662068      -0.01260353 </v>
   <v>      -0.00997569      -0.00866982       0.01255529 </v>
   <v>       0.01586538       0.00819273      -0.02348867 </v>
   <v>      -0.01739215       0.01015991       0.02301849 </v>
   <v>      -0.00283778       0.00058951      -0.00485484 </v>
   <v>      -0.00008844      -0.00302607       0.00501839 </v>
   <v>       0.03827556      -0.01689052      -0.03256300 </v>
   <v>      -0.03958264      -0.01343505       0.03238463 </v>
   <v>      -0.01470999       0.04193852      -0.03571092 </v>
   <v>       0.01382687       0.04240321       0.03555517 </v>
   <v>       0.02944274      -0.07884715      -0.00905397 </v>
   <v>      -0.03225885      -0.07802291       0.00911890 </v>
   <v>      -0.00177797       0.02853151      -0.18449136 </v>
   <v>       0.00172979       0.02628403       0.18433331 </v>
   <v>      -0.85185740       0.71937311       0.15429964 </v>
   <v>       0.85508118       0.71866626      -0.15346879 </v>
   <v>      -0.85185740      -0.71937311       0.15429964 </v>
   <v>       0.85508118      -0.71866626      -0.15346879 </v>
   <v>      -0.00177797      -0.02853151      -0.18449136 </v>
   <v>       0.00172979      -0.02628403       0.18433331 </v>
   <v>       0.02944274       0.07884715      -0.00905397 </v>
   <v>      -0.03225885       0.07802291       0.00911890 </v>
   <v>      -0.01470999      -0.04193852      -0.03571092 </v>
   <v>       0.01382687      -0.04240321       0.03555517 </v>
   <v>       0.03827556       0.01689052      -0.03256300 </v>
   <v>      -0.03958264       0.01343505       0.03238463 </v>
   <v>      -0.00283778      -0.00058951      -0.00485484 </v>
   <v>      -0.00008844       0.00302607       0.00501839 </v>
   <v>       0.01586538      -0.00819273      -0.02348867 </v>
   <v>      -0.01739215      -0.01015991       0.02301849 </v>
   <v>       0.01183574       0.00662068      -0.01260353 </v>
   <v>      -0.00997569       0.00866982       0.01255529 </v>
   <v>       0.00623598      -0.00520375      -0.00519513 </v>
   <v>      -0.00218376      -0.00216823       0.00527807 </v>
   <v>       0.02047577      -0.00513674      -0.01804963 </v>
   <v>      -0.01758262      -0.00643585       0.01837259 </v>
   <v>       0.93399974      -0.68655066      -0.03881730 </v>
   <v>      -0.93200973      -0.68461384       0.03872075 </v>
   <v>       0.93399974       0.68655066      -0.03881730 </v>
   <v>      -0.93200973       0.68461384       0.03872075 </v>
  </varray>
  <energy>
   <i name="e_fr_energy">   -429.60788464 </i>
   <i name="e_wo_entrp">   -429.60349497 </i>
   <i name="e_0_energy">     -0.00877935 </i>
  </energy>
  <time name="totalsc">  354.01  358.55</time>
  <eigenvalues>
   <array>
    <dimension dim="1">band</dimension>
    <dimension dim="2">kpoint</dimension>
    <dimension dim="3">spin</dimension>
    <field>eigene</field>
    <field>occ</field>
    <set>
     <set comment="spin 1">
      <set comment="kpoint 1">
       <r>  -21.1858    1.0000 </r>
       <r>  -21.1801    1.0000 </r>
       <r>  -18.5854    1.0000 </r>
       <r>  -18.5798    1.0000 </r>
       <r>  -17.9272    1.0000 </r>
       <r>  -17.7922    1.0000 </r>
       <r>  -17.6042    1.0000 </r>
       <r>  -17.3450    1.0000 </r>
       <r>  -17.0129    1.0000 </r>
       <r>  -16.6070    1.0000 </r>
       <r>  -16.1383    1.0000 </r>
       <r>  -15.5940    1.0000 </r>
       <r>  -14.9899    1.0000 </r>
       <r>  -14.3267    1.0000 </r>
       <r>  -13.6127    1.0000 </r>
       <r>  -12.8594    1.0000 </r>
       <r>  -12.3686    1.0000 </r>
       <r>  -12.2567    1.0000 </r>
       <r>  -12.1060    1.0000 </r>
       <r>  -12.0913    1.0000 </r>
       <r>  -11.8954    1.0000 </r>
       <r>  -11.6223    1.0000 </r>
       <r>  -11.3910    1.0000 </r>
       <r>  -11.3467    1.0000 </r>
       <r>  -11.2859    1.0000 </r>
       <r>  -11.2846    1.0000 </r>
       <r>  -11.1773    1.0000 </r>
       <r>  -11.0696    1.0000 </r>
       <r>  -10.8906    1.0000 </r>
       <r>  -10.8713    1.0000 </r>
       <r>  -10.7911    1.0000 </r>
       <r>  -10.6731    1.0000 </r>
       <r>  -10.5930    1.0000 </r>
       <r>  -10.4247    1.0000 </r>
       <r>   -9.9059    1.0000 </r>
       <r>   -9.3301    1.0000 </r>
       <r>   -8.7013    1.0000 </r>
       <r>   -8.6984    1.0000 </r>
       <r>   -8.6279    1.0000 </r>
       <r>   -8.3281    1.0000 </r>
       <r>   -8.2824    1.0000 </r>
       <r>   -8.0225    1.0000 </r>
       <r>   -7.8281    1.0000 </r>
       <r>   -7.6508    1.0000 </r>
       <r>   -7.2994    1.0000 </r>
       <r>   -7.2969    1.0000 </r>
       <r>   -6.8851    1.0000 </r>
       <r>   -6.6930    1.0000 </r>
       <r>   -6.5400    1.0000 </r>
       <r>   -6.2050    1.0000 </r>
       <r>   -5.9873    1.0000 </r>
       <r>   -5.7663    1.0000 </r>
       <r>   -5.5937    1.0000 </r>
       <r>   -5.3013    1.0000 </r>
       <r>   -5.0430    1.0000 </r>
       <r>   -4.9857    1.0000 </r>
       <r>   -4.7922    1.0000 </r>
       <r>   -4.5714    1.0000 </r>
       <r>   -4.5046    1.0000 </r>
       <r>   -4.4918    1.0000 </r>
       <r>   -4.3712    1.0000 </r>
       <r>   -4.2585    1.0000 </r>
       <r>   -4.2159    1.0000 </r>
       <r>   -4.1700    1.0000 </r>
       <r>   -3.9056    1.0000 </r>
       <r>   -3.7554    1.0000 </r>
       <r>   -3.6411    1.0000 </r>
       <r>   -3.5732    1.0000 </r>
       <r>   -3.2026    1.0000 </r>
       <r>   -3.1782    1.0000 </r>
       <r>   -3.1502    1.0000 </r>
       <r>   -2.7189    1.0000 </r>
       <r>   -2.6817    1.0000 </r>
       <r>   -2.6401    1.0000 </r>
       <r>   -2.2144    1.0000 </r>
       <r>   -2.1621    1.0000 </r>
       <r>   -2.1296    1.0000 </r>
       <r>   -2.0776    1.0000 </r>
       <r>   -2.0694    1.0000 </r>
       <r>   -1.6918    1.0000 </r>
       <r>   -1.6650    1.0000 </r>
       <r>   -1.6549    1.0000 </r>
       <r>   -1.3777    1.0000 </r>
       <r>   -1.3226    1.0000 </r>
       <r>   -1.1152    1.0000 </r>
       <r>   -1.0903    1.0000 </r>
       <r>   -1.0559    1.0000 </r>
       <r>   -1.0194    1.0000 </r>
       <r>   -0.8480    1.0000 </r>
       <r>   -0.6003    1.0000 </r>
       <r>   -0.4265    1.0000 </r>
       <r>   -0.2666    1.0000 </r>
       <r>    0.1494    1.0000 </r>
       <r>    0.2163    1.0000 </r>
       <r>    0.6460    1.0000 </r>
       <r>    0.8511    1.0000 </r>
       <r>    1.2065    1.0000 </r>
       <r>    1.3941    1.0000 </r>
       <r>    1.3994    1.0000 </r>
       <r>    1.4498    1.0000 </r>
       <r>    1.8537    0.0695 </r>
       <r>    1.9801    0.0000 </r>
       <r>    2.4035    0.0000 </r>
       <r>    2.5572    0.0000 </r>
       <r>    2.7115    0.0000 </r>
       <r>    2.9068    0.0000 </r>
       <r>    2.9886    0.0000 </r>
       <r>    3.0197    0.0000 </r>
       <r>    3.0278    0.0000 </r>
       <r>    3.2609    0.0000 </r>
       <r>    3.2660    0.0000 </r>
       <r>    3.3224    0.0000 </r>
       <r>    4.1439    0.0000 </r>
       <r>    5.0167    0.0000 </r>
       <r>    5.9319    0.0000 </r>
       <r>    6.5891    0.0000 </r>
       <r>    6.7023    0.0000 </r>
       <r>    6.8445    0.0000 </r>
       <r>    6.8791    0.0000 </r>
       <r>    7.0448    0.0000 </r>
       <r>    7.3042    0.0000 </r>
       <r>    7.6166    0.0000 </r>
       <r>    7.8462    0.0000 </r>
       <r>    7.9595    0.0000 </r>
       <r>    8.3503    0.0000 </r>
       <r>    8.6965    0.0000 </r>
       <r>    8.8323    0.0000 </r>
       <r>    9.1183    0.0000 </r>
       <r>    9.2188    0.0000 </r>
       <r>    9.2666    0.0000 </r>
       <r>    9.6983    0.0000 </r>
       <r>    9.7665    0.0000 </r>
       <r>    9.8868    0.0000 </r>
       <r>   10.2254    0.0000 </r>
       <r>   10.2514    0.0000 </r>
       <r>   10.3016    0.0000 </r>
       <r>   10.3674    0.0000 </r>
       <r>   10.4462    0.0000 </r>
       <r>   10.5067    0.0000 </r>
       <r>   10.5483    0.0000 </r>
       <r>   10.6196    0.0000 </r>
       <r>   10.8867    0.0000 </r>
       <r>   11.0052    0.0000 </r>
       <r>   11.0942    0.0000 </r>
       <r>   11.1474    0.0000 </r>
       <r>   11.2729    0.0000 </r>
       <r>   11.3103    0.0000 </r>
       <r>   11.4597    0.0000 </r>
       <r>   11.5390    0.0000 </r>
       <r>   11.6788    0.0000 </r>
       <r>   11.8638    0.0000 </r>
       <r>   12.1969    0.0000 </r>
       <r>   12.2321    0.0000 </r>
       <r>   12.2460    0.0000 </r>
       <r>   12.2703    0.0000 </r>
       <r>   12.4492    0.0000 </r>
       <r>   12.6554    0.0000 </r>
       <r>   12.6747    0.0000 </r>
       <r>   12.7154    0.0000 </r>
       <r>   12.7733    0.0000 </r>
       <r>   12.8657    0.0000 </r>
       <r>   12.9142    0.0000 </r>
       <r>   12.9720    0.0000 </r>
       <r>   12.9841    0.0000 </r>
       <r>   13.0159    0.0000 </r>
       <r>   13.1335    0.0000 </r>
       <r>   13.1615    0.0000 </r>
       <r>   13.3020    0.0000 </r>
       <r>   13.4047    0.0000 </r>
       <r>   13.4926    0.0000 </r>
       <r>   13.5855    0.0000 </r>
       <r>   13.5961    0.0000 </r>
       <r>   13.7179    0.0000 </r>
       <r>   13.8517    0.0000 </r>
       <r>   13.9030    0.0000 </r>
       <r>   13.9261    0.0000 </r>
       <r>   13.9480    0.0000 </r>
       <r>   14.1156    0.0000 </r>
       <r>   14.1573    0.0000 </r>
       <r>   14.2410    0.0000 </r>
       <r>   14.4249    0.0000 </r>
       <r>   14.4856    0.0000 </r>
       <r>   14.6949    0.0000 </r>
       <r>   14.7748    0.0000 </r>
       <r>   14.8817    0.0000 </r>
       <r>   15.0602    0.0000 </r>
       <r>   15.0664    0.0000 </r>
       <r>   15.4256    0.0000 </r>
      </set>
      <set comment="kpoint 2">
       <r>  -21.0666    1.0000 </r>
       <r>  -21.0609    1.0000 </r>
       <r>  -18.8079    1.0000 </r>
       <r>  -18.8023    1.0000 </r>
       <r>  -17.7485    1.0000 </r>
       <r>  -17.6139    1.0000 </r>
       <r>  -17.4267    1.0000 </r>
       <r>  -17.1685    1.0000 </r>
       <r>  -16.8376    1.0000 </r>
       <r>  -16.4331    1.0000 </r>
       <r>  -15.9660    1.0000 </r>
       <r>  -15.4235    1.0000 </r>
       <r>  -14.8218    1.0000 </r>
       <r>  -14.1619    1.0000 </r>
       <r>  -13.6888    1.0000 </r>
       <r>  -13.5700    1.0000 </r>
       <r>  -13.4536    1.0000 </r>
       <r>  -13.4095    1.0000 </r>
       <r>  -13.1877    1.0000 </r>
       <r>  -12.9027    1.0000 </r>
       <r>  -12.7154    1.0000 </r>
       <r>  -12.5573    1.0000 </r>
       <r>  -12.1723    1.0000 </r>
       <r>  -12.0273    1.0000 </r>
       <r>  -11.6734    1.0000 </r>
       <r>  -11.4828    1.0000 </r>
       <r>  -10.5727    1.0000 </r>
       <r>  -10.4148    1.0000 </r>
       <r>  -10.0061    1.0000 </r>
       <r>   -9.9290    1.0000 </r>
       <r>   -9.8081    1.0000 </r>
       <r>   -9.7647    1.0000 </r>
       <r>   -9.6171    1.0000 </r>
       <r>   -9.6154    1.0000 </r>
       <r>   -9.4715    1.0000 </r>
       <r>   -9.4126    1.0000 </r>
       <r>   -9.3972    1.0000 </r>
       <r>   -8.8642    1.0000 </r>
       <r>   -8.2021    1.0000 </r>
       <r>   -7.9093    1.0000 </r>
       <r>   -7.8189    1.0000 </r>
       <r>   -7.6267    1.0000 </r>
       <r>   -7.4786    1.0000 </r>
       <r>   -7.3679    1.0000 </r>
       <r>   -7.1391    1.0000 </r>
       <r>   -6.9594    1.0000 </r>
       <r>   -6.6413    1.0000 </r>
       <r>   -6.4609    1.0000 </r>
       <r>   -6.4435    1.0000 </r>
       <r>   -5.9422    1.0000 </r>
       <r>   -5.8895    1.0000 </r>
       <r>   -5.6723    1.0000 </r>
       <r>   -5.4041    1.0000 </r>
       <r>   -5.2427    1.0000 </r>
       <r>   -4.9585    1.0000 </r>
       <r>   -4.8370    1.0000 </r>
       <r>   -4.7473    1.0000 </r>
       <r>   -4.5290    1.0000 </r>
       <r>   -4.4271    1.0000 </r>
       <r>   -4.4190    1.0000 </r>
       <r>   -4.2884    1.0000 </r>
       <r>   -4.2773    1.0000 </r>
       <r>   -4.1916    1.0000 </r>
       <r>   -4.0885    1.0000 </r>
       <r>   -3.9111    1.0000 </r>
       <r>   -3.8252    1.0000 </r>
       <r>   -3.6015    1.0000 </r>
       <r>   -3.5007    1.0000 </r>
       <r>   -3.4958    1.0000 </r>
       <r>   -3.1330    1.0000 </r>
       <r>   -3.1065    1.0000 </r>
       <r>   -3.0232    1.0000 </r>
       <r>   -2.7065    1.0000 </r>
       <r>   -2.6654    1.0000 </r>
       <r>   -2.5135    1.0000 </r>
       <r>   -2.3470    1.0000 </r>
       <r>   -2.2983    1.0000 </r>
       <r>   -2.2778    1.0000 </r>
       <r>   -2.0934    1.0000 </r>
       <r>   -2.0542    1.0000 </r>
       <r>   -1.9951    1.0000 </r>
       <r>   -1.8074    1.0000 </r>
       <r>   -1.6532    1.0000 </r>
       <r>   -1.6402    1.0000 </r>
       <r>   -1.5794    1.0000 </r>
       <r>   -1.4702    1.0000 </r>
       <r>   -1.4125    1.0000 </r>
       <r>   -1.4072    1.0000 </r>
       <r>   -1.2292    1.0000 </r>
       <r>   -1.0064    1.0000 </r>
       <r>   -0.9152    1.0000 </r>
       <r>   -0.5439    1.0000 </r>
       <r>   -0.4107    1.0000 </r>
       <r>   -0.1186    1.0000 </r>
       <r>    0.1540    1.0000 </r>
       <r>    0.3082    1.0000 </r>
       <r>    0.5961    1.0000 </r>
       <r>    0.6492    1.0000 </r>
       <r>    1.1898    1.0000 </r>
       <r>    1.1951    1.0000 </r>
       <r>    1.9401    0.0000 </r>
       <r>    1.9491    0.0000 </r>
       <r>    3.1740    0.0000 </r>
       <r>    3.2439    0.0000 </r>
       <r>    3.5295    0.0000 </r>
       <r>    3.6217    0.0000 </r>
       <r>    3.8740    0.0000 </r>
       <r>    3.9240    0.0000 </r>
       <r>    4.0100    0.0000 </r>
       <r>    4.0285    0.0000 </r>
       <r>    4.0475    0.0000 </r>
       <r>    4.1656    0.0000 </r>
       <r>    4.3244    0.0000 </r>
       <r>    4.9177    0.0000 </r>
       <r>    5.7362    0.0000 </r>
       <r>    6.6261    0.0000 </r>
       <r>    6.9639    0.0000 </r>
       <r>    7.0722    0.0000 </r>
       <r>    7.2060    0.0000 </r>
       <r>    7.3947    0.0000 </r>
       <r>    7.5499    0.0000 </r>
       <r>    7.6439    0.0000 </r>
       <r>    7.9459    0.0000 </r>
       <r>    8.2574    0.0000 </r>
       <r>    8.5032    0.0000 </r>
       <r>    8.6609    0.0000 </r>
       <r>    9.0390    0.0000 </r>
       <r>    9.2673    0.0000 </r>
       <r>    9.4149    0.0000 </r>
       <r>    9.4657    0.0000 </r>
       <r>    9.5587    0.0000 </r>
       <r>    9.9005    0.0000 </r>
       <r>   10.0991    0.0000 </r>
       <r>   10.1634    0.0000 </r>
       <r>   10.2870    0.0000 </r>
       <r>   10.3170    0.0000 </r>
       <r>   10.3628    0.0000 </r>
       <r>   10.3706    0.0000 </r>
       <r>   10.4536    0.0000 </r>
       <r>   10.5144    0.0000 </r>
       <r>   10.5258    0.0000 </r>
       <r>   10.6603    0.0000 </r>
       <r>   10.7002    0.0000 </r>
       <r>   10.8735    0.0000 </r>
       <r>   11.0196    0.0000 </r>
       <r>   11.0901    0.0000 </r>
       <r>   11.1005    0.0000 </r>
       <r>   11.3237    0.0000 </r>
       <r>   11.3640    0.0000 </r>
       <r>   11.4020    0.0000 </r>
       <r>   11.5445    0.0000 </r>
       <r>   11.6511    0.0000 </r>
       <r>   11.7149    0.0000 </r>
       <r>   11.9310    0.0000 </r>
       <r>   12.0129    0.0000 </r>
       <r>   12.1762    0.0000 </r>
       <r>   12.3476    0.0000 </r>
       <r>   12.4411    0.0000 </r>
       <r>   12.4769    0.0000 </r>
       <r>   12.5465    0.0000 </r>
       <r>   12.7064    0.0000 </r>
       <r>   12.7583    0.0000 </r>
       <r>   12.7723    0.0000 </r>
       <r>   12.8508    0.0000 </r>
       <r>   12.8884    0.0000 </r>
       <r>   13.1485    0.0000 </r>
       <r>   13.1585    0.0000 </r>
       <r>   13.3084    0.0000 </r>
       <r>   13.3837    0.0000 </r>
       <r>   13.5022    0.0000 </r>
       <r>   13.7106    0.0000 </r>
       <r>   13.7783    0.0000 </r>
       <r>   13.8062    0.0000 </r>
       <r>   13.9166    0.0000 </r>
       <r>   14.0464    0.0000 </r>
       <r>   14.1094    0.0000 </r>
       <r>   14.1789    0.0000 </r>
       <r>   14.2175    0.0000 </r>
       <r>   14.2716    0.0000 </r>
       <r>   14.4466    0.0000 </r>
       <r>   14.4687    0.0000 </r>
       <r>   14.5928    0.0000 </r>
       <r>   14.7495    0.0000 </r>
       <r>   14.9220    0.0000 </r>
       <r>   15.0002    0.0000 </r>
       <r>   15.0316    0.0000 </r>
       <r>   15.3810    0.0000 </r>
       <r>   15.4114    0.0000 </r>
      </set>
      <set comment="kpoint 3">
       <r>  -20.7398    1.0000 </r>
       <r>  -20.7340    1.0000 </r>
       <r>  -19.3275    1.0000 </r>
       <r>  -19.3218    1.0000 </r>
       <r>  -17.2164    1.0000 </r>
       <r>  -17.0834    1.0000 </r>
       <r>  -16.8986    1.0000 </r>
       <r>  -16.6436    1.0000 </r>
       <r>  -16.3165    1.0000 </r>
       <r>  -15.9166    1.0000 </r>
       <r>  -15.4547    1.0000 </r>
       <r>  -15.1536    1.0000 </r>
       <r>  -15.0275    1.0000 </r>
       <r>  -14.9189    1.0000 </r>
       <r>  -14.8545    1.0000 </r>
       <r>  -14.6160    1.0000 </r>
       <r>  -14.3257    1.0000 </r>
       <r>  -14.3090    1.0000 </r>
       <r>  -13.9338    1.0000 </r>
       <r>  -13.6815    1.0000 </r>
       <r>  -13.5018    1.0000 </r>
       <r>  -13.0502    1.0000 </r>
       <r>  -12.9684    1.0000 </r>
       <r>  -12.5807    1.0000 </r>
       <r>  -12.1553    1.0000 </r>
       <r>  -11.9694    1.0000 </r>
       <r>  -11.0108    1.0000 </r>
       <r>  -10.8832    1.0000 </r>
       <r>  -10.3075    1.0000 </r>
       <r>  -10.1863    1.0000 </r>
       <r>   -9.5165    1.0000 </r>
       <r>   -9.4339    1.0000 </r>
       <r>   -8.7540    1.0000 </r>
       <r>   -8.6753    1.0000 </r>
       <r>   -8.1317    1.0000 </r>
       <r>   -8.0704    1.0000 </r>
       <r>   -7.7529    1.0000 </r>
       <r>   -7.7127    1.0000 </r>
       <r>   -7.6495    1.0000 </r>
       <r>   -7.6381    1.0000 </r>
       <r>   -7.5570    1.0000 </r>
       <r>   -6.8563    1.0000 </r>
       <r>   -6.5110    1.0000 </r>
       <r>   -6.3561    1.0000 </r>
       <r>   -6.3131    1.0000 </r>
       <r>   -6.1894    1.0000 </r>
       <r>   -5.9840    1.0000 </r>
       <r>   -5.8732    1.0000 </r>
       <r>   -5.8490    1.0000 </r>
       <r>   -5.5457    1.0000 </r>
       <r>   -5.3898    1.0000 </r>
       <r>   -5.2862    1.0000 </r>
       <r>   -5.1099    1.0000 </r>
       <r>   -5.0087    1.0000 </r>
       <r>   -4.7627    1.0000 </r>
       <r>   -4.7100    1.0000 </r>
       <r>   -4.5802    1.0000 </r>
       <r>   -4.3930    1.0000 </r>
       <r>   -4.3701    1.0000 </r>
       <r>   -4.2079    1.0000 </r>
       <r>   -4.1992    1.0000 </r>
       <r>   -4.1489    1.0000 </r>
       <r>   -4.0680    1.0000 </r>
       <r>   -4.0515    1.0000 </r>
       <r>   -4.0151    1.0000 </r>
       <r>   -3.8580    1.0000 </r>
       <r>   -3.8270    1.0000 </r>
       <r>   -3.7139    1.0000 </r>
       <r>   -3.6755    1.0000 </r>
       <r>   -3.5759    1.0000 </r>
       <r>   -3.5245    1.0000 </r>
       <r>   -3.4916    1.0000 </r>
       <r>   -3.3501    1.0000 </r>
       <r>   -3.2762    1.0000 </r>
       <r>   -3.2182    1.0000 </r>
       <r>   -3.0388    1.0000 </r>
       <r>   -2.9913    1.0000 </r>
       <r>   -2.8423    1.0000 </r>
       <r>   -2.7458    1.0000 </r>
       <r>   -2.6893    1.0000 </r>
       <r>   -2.6500    1.0000 </r>
       <r>   -2.4648    1.0000 </r>
       <r>   -2.4550    1.0000 </r>
       <r>   -2.3411    1.0000 </r>
       <r>   -2.1960    1.0000 </r>
       <r>   -1.9190    1.0000 </r>
       <r>   -1.8453    1.0000 </r>
       <r>   -1.5870    1.0000 </r>
       <r>   -1.5812    1.0000 </r>
       <r>   -1.5284    1.0000 </r>
       <r>   -1.3555    1.0000 </r>
       <r>   -1.1150    1.0000 </r>
       <r>   -0.8370    1.0000 </r>
       <r>   -0.6899    1.0000 </r>
       <r>   -0.3521    1.0000 </r>
       <r>   -0.2780    1.0000 </r>
       <r>   -0.0049    1.0000 </r>
       <r>    0.0158    1.0000 </r>
       <r>    0.7590    1.0000 </r>
       <r>    0.7645    1.0000 </r>
       <r>    1.8220    0.2801 </r>
       <r>    1.8270    0.2346 </r>
       <r>    3.8605    0.0000 </r>
       <r>    3.8852    0.0000 </r>
       <r>    4.2849    0.0000 </r>
       <r>    4.3896    0.0000 </r>
       <r>    4.7895    0.0000 </r>
       <r>    4.9973    0.0000 </r>
       <r>    5.3257    0.0000 </r>
       <r>    5.5049    0.0000 </r>
       <r>    5.8363    0.0000 </r>
       <r>    5.9016    0.0000 </r>
       <r>    6.0867    0.0000 </r>
       <r>    6.1050    0.0000 </r>
       <r>    6.1825    0.0000 </r>
       <r>    6.2420    0.0000 </r>
       <r>    6.8509    0.0000 </r>
       <r>    7.6491    0.0000 </r>
       <r>    8.0387    0.0000 </r>
       <r>    8.1195    0.0000 </r>
       <r>    8.2233    0.0000 </r>
       <r>    8.3589    0.0000 </r>
       <r>    8.4524    0.0000 </r>
       <r>    8.5948    0.0000 </r>
       <r>    8.9112    0.0000 </r>
       <r>    9.1121    0.0000 </r>
       <r>    9.3070    0.0000 </r>
       <r>    9.4680    0.0000 </r>
       <r>    9.6732    0.0000 </r>
       <r>    9.7088    0.0000 </r>
       <r>    9.7934    0.0000 </r>
       <r>    9.8285    0.0000 </r>
       <r>    9.9185    0.0000 </r>
       <r>   10.0157    0.0000 </r>
       <r>   10.0383    0.0000 </r>
       <r>   10.1001    0.0000 </r>
       <r>   10.1786    0.0000 </r>
       <r>   10.2487    0.0000 </r>
       <r>   10.2828    0.0000 </r>
       <r>   10.3153    0.0000 </r>
       <r>   10.3943    0.0000 </r>
       <r>   10.5613    0.0000 </r>
       <r>   10.5668    0.0000 </r>
       <r>   10.6153    0.0000 </r>
       <r>   10.6774    0.0000 </r>
       <r>   10.7277    0.0000 </r>
       <r>   10.7901    0.0000 </r>
       <r>   10.8110    0.0000 </r>
       <r>   10.9095    0.0000 </r>
       <r>   11.0127    0.0000 </r>
       <r>   11.2113    0.0000 </r>
       <r>   11.3255    0.0000 </r>
       <r>   11.4407    0.0000 </r>
       <r>   11.6400    0.0000 </r>
       <r>   11.8293    0.0000 </r>
       <r>   12.0061    0.0000 </r>
       <r>   12.0201    0.0000 </r>
       <r>   12.0236    0.0000 </r>
       <r>   12.0610    0.0000 </r>
       <r>   12.1405    0.0000 </r>
       <r>   12.1582    0.0000 </r>
       <r>   12.2697    0.0000 </r>
       <r>   12.3159    0.0000 </r>
       <r>   12.3955    0.0000 </r>
       <r>   12.4357    0.0000 </r>
       <r>   12.5678    0.0000 </r>
       <r>   12.6429    0.0000 </r>
       <r>   12.8034    0.0000 </r>
       <r>   12.8476    0.0000 </r>
       <r>   12.8686    0.0000 </r>
       <r>   13.1221    0.0000 </r>
       <r>   13.1480    0.0000 </r>
       <r>   13.2110    0.0000 </r>
       <r>   13.2903    0.0000 </r>
       <r>   13.3964    0.0000 </r>
       <r>   13.4264    0.0000 </r>
       <r>   13.7424    0.0000 </r>
       <r>   13.7975    0.0000 </r>
       <r>   14.1571    0.0000 </r>
       <r>   14.3050    0.0000 </r>
       <r>   14.3224    0.0000 </r>
       <r>   14.4601    0.0000 </r>
       <r>   14.8236    0.0000 </r>
       <r>   15.0201    0.0000 </r>
       <r>   15.0963    0.0000 </r>
       <r>   15.1862    0.0000 </r>
       <r>   15.2205    0.0000 </r>
       <r>   15.4258    0.0000 </r>
      </set>
      <set comment="kpoint 4">
       <r>  -20.4439    1.0000 </r>
       <r>  -20.4381    1.0000 </r>
       <r>  -19.7139    1.0000 </r>
       <r>  -19.7083    1.0000 </r>
       <r>  -16.3440    1.0000 </r>
       <r>  -16.3440    1.0000 </r>
       <r>  -16.2137    1.0000 </r>
       <r>  -16.2136    1.0000 </r>
       <r>  -16.0336    1.0000 </r>
       <r>  -16.0335    1.0000 </r>
       <r>  -15.7841    1.0000 </r>
       <r>  -15.7841    1.0000 </r>
       <r>  -15.4642    1.0000 </r>
       <r>  -15.4641    1.0000 </r>
       <r>  -15.0732    1.0000 </r>
       <r>  -15.0731    1.0000 </r>
       <r>  -14.6221    1.0000 </r>
       <r>  -14.6221    1.0000 </r>
       <r>  -14.1006    1.0000 </r>
       <r>  -14.1005    1.0000 </r>
       <r>  -13.5307    1.0000 </r>
       <r>  -13.5303    1.0000 </r>
       <r>  -12.9436    1.0000 </r>
       <r>  -12.9434    1.0000 </r>
       <r>  -12.2202    1.0000 </r>
       <r>  -12.2180    1.0000 </r>
       <r>  -11.1228    1.0000 </r>
       <r>  -11.1228    1.0000 </r>
       <r>  -10.3931    1.0000 </r>
       <r>  -10.3926    1.0000 </r>
       <r>   -9.5827    1.0000 </r>
       <r>   -9.5826    1.0000 </r>
       <r>   -8.7458    1.0000 </r>
       <r>   -8.7458    1.0000 </r>
       <r>   -7.9215    1.0000 </r>
       <r>   -7.9211    1.0000 </r>
       <r>   -7.1764    1.0000 </r>
       <r>   -7.1755    1.0000 </r>
       <r>   -6.5465    1.0000 </r>
       <r>   -6.5454    1.0000 </r>
       <r>   -6.0247    1.0000 </r>
       <r>   -6.0247    1.0000 </r>
       <r>   -5.7113    1.0000 </r>
       <r>   -5.7103    1.0000 </r>
       <r>   -5.5756    1.0000 </r>
       <r>   -5.5742    1.0000 </r>
       <r>   -5.5415    1.0000 </r>
       <r>   -5.5413    1.0000 </r>
       <r>   -5.0242    1.0000 </r>
       <r>   -5.0208    1.0000 </r>
       <r>   -4.9211    1.0000 </r>
       <r>   -4.9161    1.0000 </r>
       <r>   -4.7700    1.0000 </r>
       <r>   -4.7699    1.0000 </r>
       <r>   -4.7387    1.0000 </r>
       <r>   -4.7387    1.0000 </r>
       <r>   -4.6754    1.0000 </r>
       <r>   -4.6742    1.0000 </r>
       <r>   -4.6483    1.0000 </r>
       <r>   -4.6480    1.0000 </r>
       <r>   -4.5845    1.0000 </r>
       <r>   -4.5844    1.0000 </r>
       <r>   -4.5626    1.0000 </r>
       <r>   -4.5624    1.0000 </r>
       <r>   -4.3975    1.0000 </r>
       <r>   -4.3971    1.0000 </r>
       <r>   -4.0287    1.0000 </r>
       <r>   -4.0279    1.0000 </r>
       <r>   -3.9791    1.0000 </r>
       <r>   -3.9757    1.0000 </r>
       <r>   -3.6580    1.0000 </r>
       <r>   -3.6562    1.0000 </r>
       <r>   -3.5028    1.0000 </r>
       <r>   -3.5027    1.0000 </r>
       <r>   -3.3970    1.0000 </r>
       <r>   -3.3949    1.0000 </r>
       <r>   -3.3636    1.0000 </r>
       <r>   -3.3632    1.0000 </r>
       <r>   -3.2220    1.0000 </r>
       <r>   -3.2211    1.0000 </r>
       <r>   -2.9694    1.0000 </r>
       <r>   -2.9689    1.0000 </r>
       <r>   -2.6529    1.0000 </r>
       <r>   -2.6523    1.0000 </r>
       <r>   -2.2813    1.0000 </r>
       <r>   -2.2809    1.0000 </r>
       <r>   -1.8564    1.0000 </r>
       <r>   -1.8560    1.0000 </r>
       <r>   -1.5528    1.0000 </r>
       <r>   -1.5475    1.0000 </r>
       <r>   -1.4062    1.0000 </r>
       <r>   -1.4057    1.0000 </r>
       <r>   -0.9402    1.0000 </r>
       <r>   -0.9397    1.0000 </r>
       <r>   -0.5081    1.0000 </r>
       <r>   -0.5067    1.0000 </r>
       <r>   -0.2030    1.0000 </r>
       <r>   -0.2027    1.0000 </r>
       <r>    0.5260    1.0000 </r>
       <r>    0.5316    1.0000 </r>
       <r>    1.7791    0.7358 </r>
       <r>    1.7841    0.6869 </r>
       <r>    4.0456    0.0000 </r>
       <r>    4.0456    0.0000 </r>
       <r>    4.5345    0.0000 </r>
       <r>    4.5352    0.0000 </r>
       <r>    5.1612    0.0000 </r>
       <r>    5.1615    0.0000 </r>
       <r>    5.8462    0.0000 </r>
       <r>    5.8464    0.0000 </r>
       <r>    6.5232    0.0000 </r>
       <r>    6.5234    0.0000 </r>
       <r>    7.1472    0.0000 </r>
       <r>    7.1473    0.0000 </r>
       <r>    7.6691    0.0000 </r>
       <r>    7.6692    0.0000 </r>
       <r>    8.0707    0.0000 </r>
       <r>    8.0708    0.0000 </r>
       <r>    8.3438    0.0000 </r>
       <r>    8.3438    0.0000 </r>
       <r>    8.5126    0.0000 </r>
       <r>    8.5133    0.0000 </r>
       <r>    8.5716    0.0000 </r>
       <r>    8.5719    0.0000 </r>
       <r>    9.1488    0.0000 </r>
       <r>    9.1532    0.0000 </r>
       <r>    9.5558    0.0000 </r>
       <r>    9.5560    0.0000 </r>
       <r>    9.5884    0.0000 </r>
       <r>    9.5888    0.0000 </r>
       <r>    9.7498    0.0000 </r>
       <r>    9.7508    0.0000 </r>
       <r>    9.8462    0.0000 </r>
       <r>    9.8470    0.0000 </r>
       <r>    9.9962    0.0000 </r>
       <r>    9.9969    0.0000 </r>
       <r>   10.0709    0.0000 </r>
       <r>   10.0733    0.0000 </r>
       <r>   10.1374    0.0000 </r>
       <r>   10.1377    0.0000 </r>
       <r>   10.2914    0.0000 </r>
       <r>   10.2917    0.0000 </r>
       <r>   10.3890    0.0000 </r>
       <r>   10.3897    0.0000 </r>
       <r>   10.5252    0.0000 </r>
       <r>   10.5254    0.0000 </r>
       <r>   10.5965    0.0000 </r>
       <r>   10.5968    0.0000 </r>
       <r>   10.8606    0.0000 </r>
       <r>   10.8608    0.0000 </r>
       <r>   11.0997    0.0000 </r>
       <r>   11.1002    0.0000 </r>
       <r>   11.1723    0.0000 </r>
       <r>   11.1725    0.0000 </r>
       <r>   11.4780    0.0000 </r>
       <r>   11.4783    0.0000 </r>
       <r>   11.5361    0.0000 </r>
       <r>   11.5373    0.0000 </r>
       <r>   11.5981    0.0000 </r>
       <r>   11.5985    0.0000 </r>
       <r>   11.7171    0.0000 </r>
       <r>   11.7171    0.0000 </r>
       <r>   11.9770    0.0000 </r>
       <r>   11.9771    0.0000 </r>
       <r>   12.0608    0.0000 </r>
       <r>   12.0616    0.0000 </r>
       <r>   12.3911    0.0000 </r>
       <r>   12.3912    0.0000 </r>
       <r>   12.9062    0.0000 </r>
       <r>   12.9064    0.0000 </r>
       <r>   13.0201    0.0000 </r>
       <r>   13.0211    0.0000 </r>
       <r>   13.5456    0.0000 </r>
       <r>   13.5471    0.0000 </r>
       <r>   13.6532    0.0000 </r>
       <r>   13.6544    0.0000 </r>
       <r>   13.7493    0.0000 </r>
       <r>   13.7498    0.0000 </r>
       <r>   14.0598    0.0000 </r>
       <r>   14.0837    0.0000 </r>
       <r>   14.4039    0.0000 </r>
       <r>   14.4664    0.0000 </r>
       <r>   14.4806    0.0000 </r>
       <r>   14.6521    0.0000 </r>
       <r>   15.0447    0.0000 </r>
       <r>   15.1847    0.0000 </r>
       <r>   15.2562    0.0000 </r>
       <r>   15.5349    0.0000 </r>
      </set>
      <set comment="kpoint 5">
       <r>  -21.0365    1.0000 </r>
       <r>  -21.0308    1.0000 </r>
       <r>  -18.6318    1.0000 </r>
       <r>  -18.6262    1.0000 </r>
       <r>  -17.4813    1.0000 </r>
       <r>  -17.3500    1.0000 </r>
       <r>  -17.1681    1.0000 </r>
       <r>  -16.9168    1.0000 </r>
       <r>  -16.5942    1.0000 </r>
       <r>  -16.1992    1.0000 </r>
       <r>  -15.7428    1.0000 </r>
       <r>  -15.2120    1.0000 </r>
       <r>  -14.6232    1.0000 </r>
       <r>  -13.9771    1.0000 </r>
       <r>  -13.2826    1.0000 </r>
       <r>  -12.5531    1.0000 </r>
       <r>  -12.5407    1.0000 </r>
       <r>  -12.4271    1.0000 </r>
       <r>  -12.2735    1.0000 </r>
       <r>  -12.0592    1.0000 </r>
       <r>  -11.8198    1.0000 </r>
       <r>  -11.7816    1.0000 </r>
       <r>  -11.4870    1.0000 </r>
       <r>  -11.4386    1.0000 </r>
       <r>  -11.4049    1.0000 </r>
       <r>  -11.3304    1.0000 </r>
       <r>  -11.1689    1.0000 </r>
       <r>  -11.1331    1.0000 </r>
       <r>  -11.0387    1.0000 </r>
       <r>  -10.9519    1.0000 </r>
       <r>  -10.7746    1.0000 </r>
       <r>  -10.6566    1.0000 </r>
       <r>  -10.6043    1.0000 </r>
       <r>  -10.5664    1.0000 </r>
       <r>  -10.0405    1.0000 </r>
       <r>   -9.4573    1.0000 </r>
       <r>   -8.8206    1.0000 </r>
       <r>   -8.6691    1.0000 </r>
       <r>   -8.6650    1.0000 </r>
       <r>   -8.3532    1.0000 </r>
       <r>   -8.2073    1.0000 </r>
       <r>   -8.1335    1.0000 </r>
       <r>   -7.9044    1.0000 </r>
       <r>   -7.5083    1.0000 </r>
       <r>   -7.4019    1.0000 </r>
       <r>   -7.3587    1.0000 </r>
       <r>   -6.9784    1.0000 </r>
       <r>   -6.8690    1.0000 </r>
       <r>   -6.8398    1.0000 </r>
       <r>   -6.7266    1.0000 </r>
       <r>   -6.6546    1.0000 </r>
       <r>   -6.6339    1.0000 </r>
       <r>   -6.5126    1.0000 </r>
       <r>   -6.2208    1.0000 </r>
       <r>   -6.2201    1.0000 </r>
       <r>   -5.8939    1.0000 </r>
       <r>   -5.8562    1.0000 </r>
       <r>   -5.8482    1.0000 </r>
       <r>   -5.6026    1.0000 </r>
       <r>   -5.4179    1.0000 </r>
       <r>   -5.2179    1.0000 </r>
       <r>   -5.0588    1.0000 </r>
       <r>   -5.0213    1.0000 </r>
       <r>   -4.9063    1.0000 </r>
       <r>   -4.7194    1.0000 </r>
       <r>   -4.5309    1.0000 </r>
       <r>   -4.3443    1.0000 </r>
       <r>   -4.3227    1.0000 </r>
       <r>   -4.1842    1.0000 </r>
       <r>   -3.7668    1.0000 </r>
       <r>   -3.7196    1.0000 </r>
       <r>   -3.6966    1.0000 </r>
       <r>   -3.2347    1.0000 </r>
       <r>   -3.1994    1.0000 </r>
       <r>   -3.0398    1.0000 </r>
       <r>   -2.7278    1.0000 </r>
       <r>   -2.6760    1.0000 </r>
       <r>   -2.3085    1.0000 </r>
       <r>   -2.2050    1.0000 </r>
       <r>   -2.1590    1.0000 </r>
       <r>   -1.7284    1.0000 </r>
       <r>   -1.7022    1.0000 </r>
       <r>   -1.5912    1.0000 </r>
       <r>   -1.5837    1.0000 </r>
       <r>   -1.5353    1.0000 </r>
       <r>   -1.4062    1.0000 </r>
       <r>   -1.3562    1.0000 </r>
       <r>   -1.1387    1.0000 </r>
       <r>   -1.1157    1.0000 </r>
       <r>   -0.7332    1.0000 </r>
       <r>   -0.0574    1.0000 </r>
       <r>    0.0777    1.0000 </r>
       <r>    0.1047    1.0000 </r>
       <r>    0.3394    1.0000 </r>
       <r>    0.6590    1.0000 </r>
       <r>    0.8702    1.0000 </r>
       <r>    1.0605    1.0000 </r>
       <r>    1.3759    1.0000 </r>
       <r>    1.3812    1.0000 </r>
       <r>    1.5419    1.0000 </r>
       <r>    1.6052    1.0000 </r>
       <r>    2.0863    0.0000 </r>
       <r>    2.2607    0.0000 </r>
       <r>    2.7159    0.0000 </r>
       <r>    2.8116    0.0000 </r>
       <r>    3.2329    0.0000 </r>
       <r>    3.3981    0.0000 </r>
       <r>    3.5280    0.0000 </r>
       <r>    3.7185    0.0000 </r>
       <r>    3.8438    0.0000 </r>
       <r>    3.8717    0.0000 </r>
       <r>    4.1394    0.0000 </r>
       <r>    4.9336    0.0000 </r>
       <r>    5.7754    0.0000 </r>
       <r>    6.6555    0.0000 </r>
       <r>    7.5626    0.0000 </r>
       <r>    8.4862    0.0000 </r>
       <r>    9.4027    0.0000 </r>
       <r>    9.5519    0.0000 </r>
       <r>    9.7580    0.0000 </r>
       <r>   10.1518    0.0000 </r>
       <r>   10.2005    0.0000 </r>
       <r>   10.2135    0.0000 </r>
       <r>   10.2524    0.0000 </r>
       <r>   10.2780    0.0000 </r>
       <r>   10.4166    0.0000 </r>
       <r>   10.5125    0.0000 </r>
       <r>   10.5231    0.0000 </r>
       <r>   10.9315    0.0000 </r>
       <r>   10.9350    0.0000 </r>
       <r>   10.9870    0.0000 </r>
       <r>   11.2676    0.0000 </r>
       <r>   11.3620    0.0000 </r>
       <r>   11.5527    0.0000 </r>
       <r>   11.5555    0.0000 </r>
       <r>   11.9790    0.0000 </r>
       <r>   12.0724    0.0000 </r>
       <r>   12.0946    0.0000 </r>
       <r>   12.1184    0.0000 </r>
       <r>   12.1194    0.0000 </r>
       <r>   12.1814    0.0000 </r>
       <r>   12.2804    0.0000 </r>
       <r>   12.2965    0.0000 </r>
       <r>   12.4856    0.0000 </r>
       <r>   12.4934    0.0000 </r>
       <r>   12.5984    0.0000 </r>
       <r>   12.6209    0.0000 </r>
       <r>   12.6307    0.0000 </r>
       <r>   12.6833    0.0000 </r>
       <r>   12.7772    0.0000 </r>
       <r>   12.8089    0.0000 </r>
       <r>   13.0166    0.0000 </r>
       <r>   13.0549    0.0000 </r>
       <r>   13.0708    0.0000 </r>
       <r>   13.0993    0.0000 </r>
       <r>   13.1632    0.0000 </r>
       <r>   13.2897    0.0000 </r>
       <r>   13.3410    0.0000 </r>
       <r>   13.3574    0.0000 </r>
       <r>   13.3665    0.0000 </r>
       <r>   13.4887    0.0000 </r>
       <r>   13.5416    0.0000 </r>
       <r>   13.5876    0.0000 </r>
       <r>   13.6737    0.0000 </r>
       <r>   13.6937    0.0000 </r>
       <r>   13.6963    0.0000 </r>
       <r>   13.7429    0.0000 </r>
       <r>   13.7588    0.0000 </r>
       <r>   13.8441    0.0000 </r>
       <r>   13.9096    0.0000 </r>
       <r>   14.0098    0.0000 </r>
       <r>   14.0815    0.0000 </r>
       <r>   14.1140    0.0000 </r>
       <r>   14.1496    0.0000 </r>
       <r>   14.3268    0.0000 </r>
       <r>   14.3536    0.0000 </r>
       <r>   14.3845    0.0000 </r>
       <r>   14.4305    0.0000 </r>
       <r>   14.6738    0.0000 </r>
       <r>   14.7131    0.0000 </r>
       <r>   14.7548    0.0000 </r>
       <r>   14.7960    0.0000 </r>
       <r>   14.8263    0.0000 </r>
       <r>   14.8879    0.0000 </r>
       <r>   14.9424    0.0000 </r>
       <r>   15.0281    0.0000 </r>
       <r>   15.2275    0.0000 </r>
       <r>   15.9656    0.0000 </r>
      </set>
      <set comment="kpoint 6">
       <r>  -20.9299    1.0000 </r>
       <r>  -20.9242    1.0000 </r>
       <r>  -18.8387    1.0000 </r>
       <r>  -18.8331    1.0000 </r>
       <r>  -17.3335    1.0000 </r>
       <r>  -17.2025    1.0000 </r>
       <r>  -17.0209    1.0000 </r>
       <r>  -16.7701    1.0000 </r>
       <r>  -16.4480    1.0000 </r>
       <r>  -16.0537    1.0000 </r>
       <r>  -15.5980    1.0000 </r>
       <r>  -15.0681    1.0000 </r>
       <r>  -14.4806    1.0000 </r>
       <r>  -13.8367    1.0000 </r>
       <r>  -13.7545    1.0000 </r>
       <r>  -13.6349    1.0000 </r>
       <r>  -13.4731    1.0000 </r>
       <r>  -13.2493    1.0000 </r>
       <r>  -13.1470    1.0000 </r>
       <r>  -12.9614    1.0000 </r>
       <r>  -12.6110    1.0000 </r>
       <r>  -12.4348    1.0000 </r>
       <r>  -12.2142    1.0000 </r>
       <r>  -11.8699    1.0000 </r>
       <r>  -11.6218    1.0000 </r>
       <r>  -11.4099    1.0000 </r>
       <r>  -10.4863    1.0000 </r>
       <r>  -10.4164    1.0000 </r>
       <r>  -10.0252    1.0000 </r>
       <r>   -9.9649    1.0000 </r>
       <r>   -9.9530    1.0000 </r>
       <r>   -9.9005    1.0000 </r>
       <r>   -9.7512    1.0000 </r>
       <r>   -9.7493    1.0000 </r>
       <r>   -9.5391    1.0000 </r>
       <r>   -9.5090    1.0000 </r>
       <r>   -9.4469    1.0000 </r>
       <r>   -8.9174    1.0000 </r>
       <r>   -8.2444    1.0000 </r>
       <r>   -7.9741    1.0000 </r>
       <r>   -7.8165    1.0000 </r>
       <r>   -7.7100    1.0000 </r>
       <r>   -7.5622    1.0000 </r>
       <r>   -7.2942    1.0000 </r>
       <r>   -7.1817    1.0000 </r>
       <r>   -7.0579    1.0000 </r>
       <r>   -6.7135    1.0000 </r>
       <r>   -6.6083    1.0000 </r>
       <r>   -6.5519    1.0000 </r>
       <r>   -6.5396    1.0000 </r>
       <r>   -6.4749    1.0000 </r>
       <r>   -6.4710    1.0000 </r>
       <r>   -6.2621    1.0000 </r>
       <r>   -6.0161    1.0000 </r>
       <r>   -5.9740    1.0000 </r>
       <r>   -5.7803    1.0000 </r>
       <r>   -5.7257    1.0000 </r>
       <r>   -5.6118    1.0000 </r>
       <r>   -5.4460    1.0000 </r>
       <r>   -5.1796    1.0000 </r>
       <r>   -5.1726    1.0000 </r>
       <r>   -4.9877    1.0000 </r>
       <r>   -4.8431    1.0000 </r>
       <r>   -4.6918    1.0000 </r>
       <r>   -4.6775    1.0000 </r>
       <r>   -4.4916    1.0000 </r>
       <r>   -4.2641    1.0000 </r>
       <r>   -4.2171    1.0000 </r>
       <r>   -4.1234    1.0000 </r>
       <r>   -3.9296    1.0000 </r>
       <r>   -3.6310    1.0000 </r>
       <r>   -3.5405    1.0000 </r>
       <r>   -3.5107    1.0000 </r>
       <r>   -3.1646    1.0000 </r>
       <r>   -3.0674    1.0000 </r>
       <r>   -2.8488    1.0000 </r>
       <r>   -2.7457    1.0000 </r>
       <r>   -2.5511    1.0000 </r>
       <r>   -2.3553    1.0000 </r>
       <r>   -2.1646    1.0000 </r>
       <r>   -2.0898    1.0000 </r>
       <r>   -2.0461    1.0000 </r>
       <r>   -1.9743    1.0000 </r>
       <r>   -1.9389    1.0000 </r>
       <r>   -1.8504    1.0000 </r>
       <r>   -1.6760    1.0000 </r>
       <r>   -1.4459    1.0000 </r>
       <r>   -1.4402    1.0000 </r>
       <r>   -1.3946    1.0000 </r>
       <r>   -1.1711    1.0000 </r>
       <r>   -1.0127    1.0000 </r>
       <r>   -0.7950    1.0000 </r>
       <r>   -0.6818    1.0000 </r>
       <r>   -0.5110    1.0000 </r>
       <r>   -0.1816    1.0000 </r>
       <r>   -0.0724    1.0000 </r>
       <r>    0.1540    1.0000 </r>
       <r>    0.2608    1.0000 </r>
       <r>    1.1659    1.0000 </r>
       <r>    1.1712    1.0000 </r>
       <r>    1.5339    1.0000 </r>
       <r>    1.5509    1.0000 </r>
       <r>    3.0665    0.0000 </r>
       <r>    3.1119    0.0000 </r>
       <r>    3.5241    0.0000 </r>
       <r>    3.6697    0.0000 </r>
       <r>    4.0353    0.0000 </r>
       <r>    4.2683    0.0000 </r>
       <r>    4.5633    0.0000 </r>
       <r>    4.6771    0.0000 </r>
       <r>    4.9245    0.0000 </r>
       <r>    5.0278    0.0000 </r>
       <r>    5.0928    0.0000 </r>
       <r>    5.3219    0.0000 </r>
       <r>    6.1342    0.0000 </r>
       <r>    7.0189    0.0000 </r>
       <r>    7.9340    0.0000 </r>
       <r>    8.8495    0.0000 </r>
       <r>    9.5877    0.0000 </r>
       <r>    9.6988    0.0000 </r>
       <r>    9.7610    0.0000 </r>
       <r>   10.0008    0.0000 </r>
       <r>   10.0447    0.0000 </r>
       <r>   10.1309    0.0000 </r>
       <r>   10.1354    0.0000 </r>
       <r>   10.1832    0.0000 </r>
       <r>   10.2103    0.0000 </r>
       <r>   10.3287    0.0000 </r>
       <r>   10.3842    0.0000 </r>
       <r>   10.5769    0.0000 </r>
       <r>   10.6745    0.0000 </r>
[...]
       <r>   -12.8626     5.6188    20.4493 </r>
       <r>   -12.7175     2.6517    20.8341 </r>
       <r>   -12.5724     3.3410    21.3188 </r>
       <r>   -12.4273     4.4085    21.9585 </r>
       <r>   -12.2822     2.3300    22.2966 </r>
       <r>   -12.1371     3.2391    22.7665 </r>
       <r>   -11.9920     4.9727    23.4881 </r>
       <r>   -11.8469     4.5256    24.1447 </r>
       <r>   -11.7018     2.9758    24.5765 </r>
       <r>   -11.5567     1.5939    24.8078 </r>
       <r>   -11.4116     2.6824    25.1970 </r>
       <r>   -11.2665     4.5213    25.8530 </r>
       <r>   -11.1214     2.0732    26.1538 </r>
       <r>   -10.9763     4.0646    26.7436 </r>
       <r>   -10.8312     4.1893    27.3514 </r>
       <r>   -10.6861     3.0648    27.7961 </r>
       <r>   -10.5410     2.9661    28.2265 </r>
       <r>   -10.3959     3.5445    28.7408 </r>
       <r>   -10.2508     4.1575    29.3440 </r>
       <r>   -10.1057     3.2319    29.8129 </r>
       <r>    -9.9606     3.8181    30.3669 </r>
       <r>    -9.8156     5.5188    31.1677 </r>
       <r>    -9.6705     4.3869    31.8042 </r>
       <r>    -9.5254     3.8154    32.3578 </r>
       <r>    -9.3803     7.9716    33.5145 </r>
       <r>    -9.2352     5.6119    34.3287 </r>
       <r>    -9.0901     0.0318    34.3333 </r>
       <r>    -8.9450     0.0414    34.3393 </r>
       <r>    -8.7999     2.2417    34.6646 </r>
       <r>    -8.6548     3.6808    35.1987 </r>
       <r>    -8.5097     6.5943    36.1555 </r>
       <r>    -8.3646     0.0810    36.1672 </r>
       <r>    -8.2195     1.5085    36.3861 </r>
       <r>    -8.0744     3.8265    36.9413 </r>
       <r>    -7.9293     5.2579    37.7042 </r>
       <r>    -7.7842     9.0532    39.0178 </r>
       <r>    -7.6391     7.0156    40.0357 </r>
       <r>    -7.4940     5.9550    40.8998 </r>
       <r>    -7.3489     3.8851    41.4635 </r>
       <r>    -7.2038     3.0107    41.9004 </r>
       <r>    -7.0587     3.3303    42.3836 </r>
       <r>    -6.9136     3.8182    42.9376 </r>
       <r>    -6.7685     4.3300    43.5658 </r>
       <r>    -6.6234     3.1004    44.0157 </r>
       <r>    -6.4783     6.6748    44.9842 </r>
       <r>    -6.3332    10.7070    46.5377 </r>
       <r>    -6.1882     5.1984    47.2920 </r>
       <r>    -6.0431     3.2288    47.7605 </r>
       <r>    -5.8980     7.4186    48.8369 </r>
       <r>    -5.7529    11.8267    50.5529 </r>
       <r>    -5.6078     8.6293    51.8049 </r>
       <r>    -5.4627     6.7579    52.7855 </r>
       <r>    -5.3176     4.6495    53.4601 </r>
       <r>    -5.1725     6.8561    54.4549 </r>
       <r>    -5.0274     3.8647    55.0157 </r>
       <r>    -4.8823    10.6674    56.5635 </r>
       <r>    -4.7372    10.2350    58.0485 </r>
       <r>    -4.5921    16.1187    60.3873 </r>
       <r>    -4.4470     9.2820    61.7341 </r>
       <r>    -4.3019    10.0154    63.1873 </r>
       <r>    -4.1568     9.2465    64.5289 </r>
       <r>    -4.0117    14.2987    66.6036 </r>
       <r>    -3.8666     7.9114    67.7515 </r>
       <r>    -3.7215     9.9334    69.1928 </r>
       <r>    -3.5764     7.0243    70.2120 </r>
       <r>    -3.4313    14.9650    72.3834 </r>
       <r>    -3.2862     8.2170    73.5756 </r>
       <r>    -3.1411     6.7505    74.5551 </r>
       <r>    -2.9960     6.7611    75.5361 </r>
       <r>    -2.8509    11.1764    77.1577 </r>
       <r>    -2.7058     5.5419    77.9618 </r>
       <r>    -2.5607     9.5215    79.3434 </r>
       <r>    -2.4157     7.4612    80.4260 </r>
       <r>    -2.2706     5.4740    81.2202 </r>
       <r>    -2.1255     6.6117    82.1795 </r>
       <r>    -1.9804     8.7968    83.4559 </r>
       <r>    -1.8353     5.5213    84.2570 </r>
       <r>    -1.6902     7.6957    85.3737 </r>
       <r>    -1.5451     8.1726    86.5595 </r>
       <r>    -1.4000     5.5079    87.3586 </r>
       <r>    -1.2549     6.9766    88.3709 </r>
       <r>    -1.1098     3.9334    88.9416 </r>
       <r>    -0.9647     6.6866    89.9118 </r>
       <r>    -0.8196     4.0087    90.4935 </r>
       <r>    -0.6745     4.9952    91.2183 </r>
       <r>    -0.5294     7.9584    92.3730 </r>
       <r>    -0.3843    11.0487    93.9761 </r>
       <r>    -0.2392     4.8732    94.6832 </r>
       <r>    -0.0941     3.6935    95.2191 </r>
       <r>     0.0510     4.1269    95.8179 </r>
       <r>     0.1961     3.6060    96.3411 </r>
       <r>     0.3412     3.4478    96.8414 </r>
       <r>     0.4863     1.0931    97.0000 </r>
       <r>     0.6314     0.9717    97.1410 </r>
       <r>     0.7765     2.4688    97.4992 </r>
       <r>     0.9216     0.5927    97.5852 </r>
       <r>     1.0667     0.7271    97.6907 </r>
       <r>     1.2117     0.4962    97.7627 </r>
       <r>     1.3568     0.4950    97.8345 </r>
       <r>     1.5019     2.0166    98.1271 </r>
       <r>     1.6470     2.7184    98.5215 </r>
       <r>     1.7921     2.2755    98.8517 </r>
       <r>     1.9372     2.4650    99.2094 </r>
       <r>     2.0823     2.5215    99.5752 </r>
       <r>     2.2274     6.6237   100.5363 </r>
       <r>     2.3725     3.7461   101.0798 </r>
       <r>     2.5176     0.5945   101.1661 </r>
       <r>     2.6627     0.5642   101.2480 </r>
       <r>     2.8078     1.7595   101.5033 </r>
       <r>     2.9529     5.1432   102.2495 </r>
       <r>     3.0980     3.1192   102.7021 </r>
       <r>     3.2431     6.3504   103.6235 </r>
       <r>     3.3882     3.8605   104.1837 </r>
       <r>     3.5333     2.5318   104.5510 </r>
       <r>     3.6784     3.4320   105.0490 </r>
       <r>     3.8235     3.4894   105.5553 </r>
       <r>     3.9686     6.6409   106.5188 </r>
       <r>     4.1137     5.9805   107.3866 </r>
       <r>     4.2588     2.4534   107.7426 </r>
       <r>     4.4039     4.2276   108.3560 </r>
       <r>     4.5490     2.6354   108.7384 </r>
       <r>     4.6941     3.2906   109.2158 </r>
       <r>     4.8391     2.2291   109.5392 </r>
       <r>     4.9842     2.6415   109.9225 </r>
       <r>     5.1293     5.0417   110.6540 </r>
       <r>     5.2744     1.8208   110.9182 </r>
       <r>     5.4195     3.2767   111.3937 </r>
       <r>     5.5646     2.2563   111.7211 </r>
       <r>     5.7097     0.2363   111.7553 </r>
       <r>     5.8548     2.5327   112.1228 </r>
       <r>     5.9999     4.2044   112.7329 </r>
       <r>     6.1450     3.3657   113.2212 </r>
       <r>     6.2901     4.1217   113.8193 </r>
       <r>     6.4352     0.6718   113.9167 </r>
       <r>     6.5803     1.3551   114.1133 </r>
       <r>     6.7254     4.0617   114.7027 </r>
       <r>     6.8705     1.6472   114.9417 </r>
       <r>     7.0156     3.9423   115.5137 </r>
       <r>     7.1607     5.0195   116.2420 </r>
       <r>     7.3058     3.4865   116.7479 </r>
       <r>     7.4509     1.3775   116.9478 </r>
       <r>     7.5960     1.5325   117.1701 </r>
       <r>     7.7411     5.4656   117.9632 </r>
       <r>     7.8862     1.7784   118.2212 </r>
       <r>     8.0313     3.1032   118.6715 </r>
       <r>     8.1764     3.1834   119.1334 </r>
       <r>     8.3215     2.2260   119.4563 </r>
       <r>     8.4665     4.6201   120.1267 </r>
       <r>     8.6116     5.9897   120.9958 </r>
       <r>     8.7567     2.4458   121.3507 </r>
       <r>     8.9018     2.2781   121.6812 </r>
       <r>     9.0469     3.3269   122.1639 </r>
       <r>     9.1920     3.2315   122.6328 </r>
       <r>     9.3371     7.7804   123.7617 </r>
       <r>     9.4822     6.8817   124.7602 </r>
       <r>     9.6273     6.7736   125.7430 </r>
       <r>     9.7724     9.3743   127.1032 </r>
       <r>     9.9175     9.9284   128.5438 </r>
       <r>    10.0626     7.7509   129.6684 </r>
       <r>    10.2077    14.1504   131.7216 </r>
       <r>    10.3528    17.7999   134.3043 </r>
       <r>    10.4979    10.9431   135.8921 </r>
       <r>    10.6430    12.5373   137.7112 </r>
       <r>    10.7881     9.8603   139.1419 </r>
       <r>    10.9332     9.7955   140.5632 </r>
       <r>    11.0783     6.4657   141.5013 </r>
       <r>    11.2234     8.2160   142.6934 </r>
       <r>    11.3685     8.2545   143.8911 </r>
       <r>    11.5136     8.3209   145.0984 </r>
       <r>    11.6587     8.6637   146.3555 </r>
       <r>    11.8038     7.2589   147.4087 </r>
       <r>    11.9489     3.3772   147.8988 </r>
       <r>    12.0939    10.8471   149.4726 </r>
       <r>    12.2390    12.8821   151.3418 </r>
       <r>    12.3841     9.6569   152.7429 </r>
       <r>    12.5292    12.4679   154.5520 </r>
       <r>    12.6743    12.5106   156.3672 </r>
       <r>    12.8194     8.8768   157.6552 </r>
       <r>    12.9645    14.6446   159.7801 </r>
       <r>    13.1096     9.6251   161.1767 </r>
       <r>    13.2547    15.2184   163.3848 </r>
       <r>    13.3998    14.1130   165.4325 </r>
       <r>    13.5449    11.1059   167.0439 </r>
       <r>    13.6900    10.5511   168.5749 </r>
       <r>    13.8351    13.4366   170.5245 </r>
       <r>    13.9802    13.8019   172.5271 </r>
       <r>    14.1253     8.3995   173.7458 </r>
       <r>    14.2704    12.4971   175.5591 </r>
       <r>    14.4155     7.5224   176.6506 </r>
       <r>    14.5606    14.2553   178.7189 </r>
       <r>    14.7057     9.0396   180.0306 </r>
       <r>    14.8508     9.5785   181.4204 </r>
       <r>    14.9959     9.3353   182.7749 </r>
       <r>    15.1410     8.9455   184.0729 </r>
       <r>    15.2861     8.1993   185.2625 </r>
       <r>    15.4312     6.0827   186.1451 </r>
       <r>    15.5763     4.4842   186.7958 </r>
       <r>    15.7213     3.0474   187.2379 </r>
       <r>    15.8664     1.3669   187.4363 </r>
       <r>    16.0115     1.3666   187.6345 </r>
       <r>    16.1566     1.3359   187.8284 </r>
       <r>    16.3017     0.0834   187.8405 </r>
       <r>    16.4468     0.5233   187.9164 </r>
       <r>    16.5919     0.0018   187.9167 </r>
       <r>    16.7370     0.1067   187.9321 </r>
       <r>    16.8821     0.4673   187.9999 </r>
       <r>    17.0272     0.0004   188.0000 </r>
       <r>    17.1723     0.0000   188.0000 </r>
       <r>    17.3174     0.0000   188.0000 </r>
       <r>    17.4625     0.0000   188.0000 </r>
       <r>    17.6076     0.0000   188.0000 </r>
       <r>    17.7527     0.0000   188.0000 </r>
       <r>    17.8978     0.0000   188.0000 </r>
       <r>    18.0429     0.0000   188.0000 </r>
       <r>    18.1880     0.0000   188.0000 </r>
       <r>    18.3331     0.0000   188.0000 </r>
       <r>    18.4782     0.0000   188.0000 </r>
       <r>    18.6233     0.0000   188.0000 </r>
       <r>    18.7684     0.0000   188.0000 </r>
       <r>    18.9135     0.0000   188.0000 </r>
       <r>    19.0586     0.0000   188.0000 </r>
       <r>    19.2037     0.0000   188.0000 </r>
       <r>    19.3487     0.0000   188.0000 </r>
       <r>    19.4938     0.0000   188.0000 </r>
       <r>    19.6389     0.0000   188.0000 </r>
       <r>    19.7840     0.0000   188.0000 </r>
       <r>    19.9291     0.0000   188.0000 </r>
       <r>    20.0742     0.0000   188.0000 </r>
       <r>    20.2193     0.0000   188.0000 </r>
       <r>    20.3644     0.0000   188.0000 </r>
      </set>
     </set>
    </array>
   </total>
  </dos>
 </calculation>
 <structure name="finalpos" >
  <crystal>
   <varray name="basis" >
    <v>       4.26620007       0.00000000       0.00000000 </v>
    <v>       0.00000000      39.40950012       0.00000000 </v>
    <v>      -1.42206471       0.00000000       3.18109970 </v>
   </varray>
   <i name="volume">    534.83451311 </i>
   <varray name="rec_basis" >
    <v>       0.23440063       0.00000000       0.10478542 </v>
    <v>       0.00000000       0.02537459       0.00000000 </v>
    <v>       0.00000000       0.00000000       0.31435670 </v>
   </varray>
  </crystal>
  <varray name="positions" >
   <v>       0.99972635       0.00000783       0.00000000 </v>
   <v>       0.33324726       0.00000789       0.00000000 </v>
   <v>       0.49972635       0.03122317       0.00000000 </v>
   <v>       0.83324726       0.03122310       0.00000000 </v>
   <v>       0.99989858       0.06246133       0.00000000 </v>
   <v>       0.33301183       0.06245907       0.00000000 </v>
   <v>       0.49966823       0.09369861       0.00000000 </v>
   <v>       0.83324927       0.09370033       0.00000000 </v>
   <v>       0.99972692       0.12492436       0.00000000 </v>
   <v>       0.33326526       0.12492629       0.00000000 </v>
   <v>       0.49993855       0.15617451       0.00000000 </v>
   <v>       0.83312972       0.15617360       0.00000000 </v>
   <v>       0.99968157       0.18741802       0.00000000 </v>
   <v>       0.33345729       0.18742148       0.00000000 </v>
   <v>       0.49976508       0.21863473       0.00000000 </v>
   <v>       0.83340337       0.21863213       0.00000000 </v>
   <v>       0.99982960       0.24990082       0.00000000 </v>
   <v>       0.33333668       0.24990181       0.00000000 </v>
   <v>       0.49924169       0.28117075       0.00000000 </v>
   <v>       0.83390417       0.28116934       0.00000000 </v>
   <v>       0.00216473       0.31214964       0.00000000 </v>
   <v>       0.33091401       0.31214843       0.00000000 </v>
   <v>       0.50011866       0.34329153       0.00000000 </v>
   <v>       0.83287698       0.34329222       0.00000000 </v>
   <v>       0.00011866       0.68793945       0.00000000 </v>
   <v>       0.33287698       0.68793876       0.00000000 </v>
   <v>       0.50216473       0.71908037       0.00000000 </v>
   <v>       0.83091401       0.71908157       0.00000000 </v>
   <v>       0.99924169       0.75005929       0.00000000 </v>
   <v>       0.33390417       0.75006070       0.00000000 </v>
   <v>       0.49982960       0.78133017       0.00000000 </v>
   <v>       0.83333668       0.78132918       0.00000000 </v>
   <v>       0.99976508       0.81259525       0.00000000 </v>
   <v>       0.33340337       0.81259786       0.00000000 </v>
   <v>       0.49968157       0.84381198       0.00000000 </v>
   <v>       0.83345729       0.84380853       0.00000000 </v>
   <v>       0.99993855       0.87505551       0.00000000 </v>
   <v>       0.33312972       0.87505641       0.00000000 </v>
   <v>       0.49972692       0.90630566       0.00000000 </v>
   <v>       0.83326526       0.90630372       0.00000000 </v>
   <v>       0.99966823       0.93753236       0.00000000 </v>
   <v>       0.33324927       0.93753065       0.00000000 </v>
   <v>       0.49989858       0.96876969       0.00000000 </v>
   <v>       0.83301183       0.96877194       0.00000000 </v>
   <v>       0.92883304       0.37417703       0.00000000 </v>
   <v>       0.40408709       0.37417364       0.00000000 </v>
   <v>       0.42883310       0.65705395       0.00000000 </v>
   <v>       0.90408811       0.65705735       0.00000000 </v>
  </varray>
  <varray name="selective"  type="logical" >
   <v type="logical" >  T  T  F </v>
   <v type="logical" >  T  T  F </v>
   <v type="logical" >  T  T  F </v>
   <v type="logical" >  T  T  F </v>
   <v type="logical" >  T  T  F </v>
   <v type="logical" >  T  T  F </v>
   <v type="logical" >  T  T  F </v>
   <v type="logical" >  T  T  F </v>
   <v type="logical" >  T  T  F </v>
   <v type="logical" >  T  T  F </v>
   <v type="logical" >  T  T  F </v>
   <v type="logical" >  T  T  F </v>
   <v type="logical" >  T  T  F </v>
   <v type="logical" >  T  T  F </v>
   <v type="logical" >  T  T  F </v>
   <v type="logical" >  T  T  F </v>
   <v type="logical" >  T  T  F </v>
   <v type="logical" >  T  T  F </v>
   <v type="logical" >  T  T  F </v>
   <v type="logical" >  T  T  F </v>
   <v type="logical" >  T  T  F </v>
   <v type="logical" >  T  T  F </v>
   <v type="logical" >  T  T  F </v>
   <v type="logical" >  T  T  F </v>
   <v type="logical" >  T  T  F </v>
   <v type="logical" >  T  T  F </v>
   <v type="logical" >  T  T  F </v>
   <v type="logical" >  T  T  F </v>
   <v type="logical" >  T  T  F </v>
   <v type="logical" >  T  T  F </v>
   <v type="logical" >  T  T  F </v>
   <v type="logical" >  T  T  F </v>
   <v type="logical" >  T  T  F </v>
   <v type="logical" >  T  T  F </v>
   <v type="logical" >  T  T  F </v>
   <v type="logical" >  T  T  F </v>
   <v type="logical" >  T  T  F </v>
   <v type="logical" >  T  T  F </v>
   <v type="logical" >  T  T  F </v>
   <v type="logical" >  T  T  F </v>
   <v type="logical" >  T  T  F </v>
   <v type="logical" >  T  T  F </v>
   <v type="logical" >  T  T  F </v>
   <v type="logical" >  T  T  F </v>
   <v type="logical" >  T  T  F </v>
   <v type="logical" >  T  T  F </v>
   <v type="logical" >  T  T  F </v>
   <v type="logical" >  T  T  F </v>
  </varray>
  <varray name="velocities" >
   <v>       0.00000000       0.00000000       0.00000000 </v>
   <v>       0.00000000       0.00000000       0.00000000 </v>
   <v>       0.00000000       0.00000000       0.00000000 </v>
   <v>       0.00000000       0.00000000       0.00000000 </v>
   <v>       0.00000000       0.00000000       0.00000000 </v>
   <v>       0.00000000       0.00000000       0.00000000 </v>
   <v>       0.00000000       0.00000000       0.00000000 </v>
   <v>       0.00000000       0.00000000       0.00000000 </v>
   <v>       0.00000000       0.00000000       0.00000000 </v>
   <v>       0.00000000       0.00000000       0.00000000 </v>
   <v>       0.00000000       0.00000000       0.00000000 </v>
   <v>       0.00000000       0.00000000       0.00000000 </v>
   <v>       0.00000000       0.00000000       0.00000000 </v>
   <v>       0.00000000       0.00000000       0.00000000 </v>
   <v>       0.00000000       0.00000000       0.00000000 </v>
   <v>       0.00000000       0.00000000       0.00000000 </v>
   <v>       0.00000000       0.00000000       0.00000000 </v>
   <v>       0.00000000       0.00000000       0.00000000 </v>
   <v>       0.00000000       0.00000000       0.00000000 </v>
   <v>       0.00000000       0.00000000       0.00000000 </v>
   <v>       0.00000000       0.00000000       0.00000000 </v>
   <v>       0.00000000       0.00000000       0.00000000 </v>
   <v>       0.00000000       0.00000000       0.00000000 </v>
   <v>       0.00000000       0.00000000       0.00000000 </v>
   <v>       0.00000000       0.00000000       0.00000000 </v>
   <v>       0.00000000       0.00000000       0.00000000 </v>
   <v>       0.00000000       0.00000000       0.00000000 </v>
   <v>       0.00000000       0.00000000       0.00000000 </v>
   <v>       0.00000000       0.00000000       0.00000000 </v>
   <v>       0.00000000       0.00000000       0.00000000 </v>
   <v>       0.00000000       0.00000000       0.00000000 </v>
   <v>       0.00000000       0.00000000       0.00000000 </v>
   <v>       0.00000000       0.00000000       0.00000000 </v>
   <v>       0.00000000       0.00000000       0.00000000 </v>
   <v>       0.00000000       0.00000000       0.00000000 </v>
   <v>       0.00000000       0.00000000       0.00000000 </v>
   <v>       0.00000000       0.00000000       0.00000000 </v>
   <v>       0.00000000       0.00000000       0.00000000 </v>
   <v>       0.00000000       0.00000000       0.00000000 </v>
   <v>       0.00000000       0.00000000       0.00000000 </v>
   <v>       0.00000000       0.00000000       0.00000000 </v>
   <v>       0.00000000       0.00000000       0.00000000 </v>
   <v>       0.00000000       0.00000000       0.00000000 </v>
   <v>       0.00000000       0.00000000       0.00000000 </v>
   <v>       0.00000000       0.00000000       0.00000000 </v>
   <v>       0.00000000       0.00000000       0.00000000 </v>
   <v>       0.00000000       0.00000000       0.00000000 </v>
   <v>       0.00000000       0.00000000       0.00000000 </v>
  </varray>
  <nose>
   <v>      -3.00000000       0.00000000       0.00010000       0.00010000 </v>
  </nose>
 </structure>
</modeling>
