 
             +---------------------------------------------------+
             |                                                   |
             |                   WANNIER90                       |
             |                                                   |
             +---------------------------------------------------+
             |                                                   |
             |        Welcome to the Maximally-Localized         |
             |        Generalized Wannier Functions code         |
             |            http://www.wannier.org                 |
             |                                                   |
             |  Wannier90 v2.x Authors:                          |
             |    Arash A. Mostofi  (Imperial College London)    |
             |    Giovanni Pizzi    (EPFL)                       |
             |    Ivo Souza         (Universidad del Pais Vasco) |
             |    Jonathan R. Yates (University of Oxford)       |
             |                                                   |
             |  Wannier90 Contributors:                          |
             |    Young-Su Lee       (KIST, S. Korea)            |
             |    Matthew Shelley    (Imperial College London)   |
             |    Nicolas Poilvert   (Penn State University)     |
             |    Raffaello Bianco   (Paris 6 and CNRS)          |
             |    Gabriele Sclauzero (ETH Zurich)                |
             |    David Strubbe (MIT, USA)                       |
             |    Rei Sakuma (Lund University, Sweden)           |
             |    Yusuke Nomura (U. Tokyo, Japan)                |
             |    Takashi Koretsune (Riken, Japan)               |
             |    Yoshiro Nohara (ASMS Co. Ltd., Japan)          |
             |    Ryotaro Arita (Riken, Japan)                   |
             |    Lorenzo Paulatto (UPMC Paris)                  |
             |    Florian Thole (ETH Zurich)                     |
             |    Pablo Garcia Fernandez (Unican, Spain)         |
             |    Dominik Gresch (ETH Zurich)                    |
             |    Samuel Ponce (University of Oxford)            |
             |    Marco Gibertini (EPFL)                         |
             |    Christian Stieger (ETHZ, CH)                   |
             |    Stepan Tsirkin (Universidad del Pais Vasco)    |
             |                                                   |
             |  Wannier77 Authors:                               |
             |    Nicola Marzari    (EPFL)                       |
             |    Ivo Souza         (Universidad del Pais Vasco) |
             |    David Vanderbilt  (Rutgers University)         |
             |                                                   |
             |  Please cite                                      |
             |                                                   |
             |  [ref] "An updated version of Wannier90:          |
             |        A Tool for Obtaining Maximally Localised   |
             |        Wannier Functions", A. A. Mostofi,         |
             |        J. R. Yates, G. Pizzi, Y. S. Lee,          |
             |        I. Souza, D. Vanderbilt and N. Marzari,    |
             |        Comput. Phys. Commun. 185, 2309 (2014)     |
             |        http://dx.doi.org/10.1016/j.cpc.2014.05.003|
             |                                                   |
             |  in any publications arising from the use of      |
             |  this code. For the method please cite            |
             |                                                   |
             |  [ref] "Maximally Localized Generalised Wannier   |
             |         Functions for Composite Energy Bands"     |
             |         N. Marzari and D. Vanderbilt              |
             |         Phys. Rev. B 56 12847 (1997)              |
             |                                                   |
             |  [ref] "Maximally Localized Wannier Functions     |
             |         for Entangled Energy Bands"               |
             |         I. Souza, N. Marzari and D. Vanderbilt    |
             |         Phys. Rev. B 65 035109 (2001)             |
             |                                                   |
             |                                                   |
             | Copyright (c) 1996-2017                           |
             |        Arash A. Mostofi, Jonathan R. Yates,       |
             |        Young-Su Lee, Giovanni Pizzi, Ivo Souza,   |
             |        David Vanderbilt and Nicola Marzari        |
             |                                                   |
             |        Release: 2.1.0   13th January 2017         |
             |                                                   |
             | This program is free software; you can            |
             | redistribute it and/or modify it under the terms  |
             | of the GNU General Public License as published by |
             | the Free Software Foundation; either version 2 of |
             | the License, or (at your option) any later version|
             |                                                   |
             | This program is distributed in the hope that it   |
             | will be useful, but WITHOUT ANY WARRANTY; without |
             | even the implied warranty of MERCHANTABILITY or   |
             | FITNESS FOR A PARTICULAR PURPOSE. See the GNU     |
             | General Public License for more details.          |
             |                                                   |
             | You should have received a copy of the GNU General|
             | Public License along with this program; if not,   |
             | write to the Free Software Foundation, Inc.,      |
             | 675 Mass Ave, Cambridge, MA 02139, USA.           |
             |                                                   |
             +---------------------------------------------------+
             |    Execution started on  8Feb2022 at 17:17:23     |
             +---------------------------------------------------+
 
 ******************************************************************************
 * -> Using CODATA 2006 constant values                                       *
 *    (http://physics.nist.gov/cuu/Constants/index.html)                      *
 * -> Using Bohr value from CODATA                                            *
 ******************************************************************************
 

 Wannier90 is running in LIBRARY MODE

 Setting up k-point neighbours...

 Ignoring <mp_grid> in input file
 Ignoring <unit_cell_cart> in input file
 Ignoring <kpoints> in input file
 Ignoring <atoms_cart> in input file
 
                                    ------
                                    SYSTEM
                                    ------
 
                              Lattice Vectors (Ang)
                    a_1     4.266200   0.000000   0.000000
                    a_2     0.000000  39.409500   0.000000
                    a_3    -1.422065   0.000000   3.181100
 
                   Unit Cell Volume:     534.83451  (Ang^3)
 
                        Reciprocal-Space Vectors (Ang^-1)
                    b_1     1.472783   0.000000   0.658386
                    b_2     0.000000   0.159433   0.000000
                    b_3     0.000000   0.000000   1.975161
  
 *----------------------------------------------------------------------------*
 |   Site       Fractional Coordinate          Cartesian Coordinate (Ang)     |
 +----------------------------------------------------------------------------+
 | C    1   0.99973   0.00001   0.00000   |    4.26503   0.00031   0.00000    |
 | C    2   0.33325   0.00001   0.00000   |    1.42170   0.00031   0.00000    |
 | C    3   0.49973   0.03122   0.00000   |    2.13193   1.23049   0.00000    |
 | C    4   0.83325   0.03122   0.00000   |    3.55480   1.23049   0.00000    |
 | C    5   0.99990   0.06246   0.00000   |    4.26577   2.46157   0.00000    |
 | C    6   0.33301   0.06246   0.00000   |    1.42070   2.46148   0.00000    |
 | C    7   0.49967   0.09370   0.00000   |    2.13168   3.69262   0.00000    |
 | C    8   0.83325   0.09370   0.00000   |    3.55481   3.69268   0.00000    |
 | C    9   0.99973   0.12492   0.00000   |    4.26504   4.92321   0.00000    |
 | C   10   0.33327   0.12493   0.00000   |    1.42178   4.92328   0.00000    |
 | C   11   0.49994   0.15617   0.00000   |    2.13284   6.15476   0.00000    |
 | C   12   0.83313   0.15617   0.00000   |    3.55430   6.15472   0.00000    |
 | C   13   0.99968   0.18742   0.00000   |    4.26484   7.38605   0.00000    |
 | C   14   0.33346   0.18742   0.00000   |    1.42260   7.38619   0.00000    |
 | C   15   0.49977   0.21863   0.00000   |    2.13210   8.61629   0.00000    |
 | C   16   0.83340   0.21863   0.00000   |    3.55547   8.61618   0.00000    |
 | C   17   0.99983   0.24990   0.00000   |    4.26547   9.84847   0.00000    |
 | C   18   0.33334   0.24990   0.00000   |    1.42208   9.84851   0.00000    |
 | C   19   0.49924   0.28117   0.00000   |    2.12986  11.08080   0.00000    |
 | C   20   0.83390   0.28117   0.00000   |    3.55760  11.08074   0.00000    |
 | C   21   0.00216   0.31215   0.00000   |    0.00924  12.30166   0.00000    |
 | C   22   0.33091   0.31215   0.00000   |    1.41175  12.30161   0.00000    |
 | C   23   0.50012   0.34329   0.00000   |    2.13361  13.52895   0.00000    |
 | C   24   0.83288   0.34329   0.00000   |    3.55322  13.52897   0.00000    |
 | C   25   0.00012   0.68794   0.00000   |    0.00051  27.11135   0.00000    |
 | C   26   0.33288   0.68794   0.00000   |    1.42012  27.11132   0.00000    |
 | C   27   0.50216   0.71908   0.00000   |    2.14234  28.33860   0.00000    |
 | C   28   0.83091   0.71908   0.00000   |    3.54485  28.33865   0.00000    |
 | C   29   0.99924   0.75006   0.00000   |    4.26296  29.55946   0.00000    |
 | C   30   0.33390   0.75006   0.00000   |    1.42450  29.55952   0.00000    |
 | C   31   0.49983   0.78133   0.00000   |    2.13237  30.79183   0.00000    |
 | C   32   0.83334   0.78133   0.00000   |    3.55518  30.79179   0.00000    |
 | C   33   0.99977   0.81260   0.00000   |    4.26520  32.02397   0.00000    |
 | C   34   0.33340   0.81260   0.00000   |    1.42237  32.02408   0.00000    |
 | C   35   0.49968   0.84381   0.00000   |    2.13174  33.25421   0.00000    |
 | C   36   0.83346   0.84381   0.00000   |    3.55570  33.25407   0.00000    |
 | C   37   0.99994   0.87506   0.00000   |    4.26594  34.48550   0.00000    |
 | C   38   0.33313   0.87506   0.00000   |    1.42120  34.48554   0.00000    |
 | C   39   0.49973   0.90631   0.00000   |    2.13194  35.71705   0.00000    |
 | C   40   0.83327   0.90630   0.00000   |    3.55488  35.71698   0.00000    |
 | C   41   0.99967   0.93753   0.00000   |    4.26478  36.94768   0.00000    |
 | C   42   0.33325   0.93753   0.00000   |    1.42171  36.94761   0.00000    |
 | C   43   0.49990   0.96877   0.00000   |    2.13267  38.17873   0.00000    |
 | C   44   0.83301   0.96877   0.00000   |    3.55380  38.17882   0.00000    |
 | O    1   0.92883   0.37418   0.00000   |    3.96259  14.74613   0.00000    |
 | O    2   0.40409   0.37417   0.00000   |    1.72392  14.74600   0.00000    |
 | O    3   0.42883   0.65705   0.00000   |    1.82949  25.89417   0.00000    |
 | O    4   0.90409   0.65706   0.00000   |    3.85702  25.89430   0.00000    |
 *----------------------------------------------------------------------------*
  
                                ------------
                                K-POINT GRID
                                ------------
  
             Grid size =  6 x  1 x  2      Total points =   12
  
  
 *---------------------------------- MAIN ------------------------------------*
 |  Number of Wannier Functions               :               188             |
 |  Number of input Bloch states              :               188             |
 |  Output verbosity (1=low, 5=high)          :                 1             |
 |  Timing Level (1=low, 5=high)              :                 1             |
 |  Optimisation (0=memory, 3=speed)          :                 3             |
 |  Length Unit                               :               Ang             |
 |  Post-processing setup (write *.nnkp)      :                 F             |
 |  Using Gamma-only branch of algorithms     :                 F             |
 |  Wavefunction (UNK) file-type              :       unformatted             |
 |  Wavefunction spin channel                 :                up             |
 *----------------------------------------------------------------------------*
 *------------------------------- WANNIERISE ---------------------------------*
 |  Total number of iterations                :               100             |
 |  Number of CG steps before reset           :                 5             |
 |  Trial step length for line search         :             2.000             |
 |  Convergence tolerence                     :         0.100E-09             |
 |  Convergence window                        :                -1             |
 |  Iterations between writing output         :                 1             |
 |  Iterations between backing up to disk     :               100             |
 |  Write r^2_nm to file                      :                 F             |
 |  Write xyz WF centres to file              :                 F             |
 |  Write on-site energies <0n|H|0n> to file  :                 F             |
 |  Use guiding centre to control phases      :                 F             |
 |  Use phases for initial projections        :                 F             |
 *----------------------------------------------------------------------------*
 *-------------------------------- PLOTTING ----------------------------------*
 |  Plotting Wannier functions                :                 T             |
 |   Size of supercell for plotting           :     2x    2x    2             |
 |   Plotting mode (molecule or crystal)      :           crystal             |
 |   Plotting format                          :          xcrysden             |
 *----------------------------------------------------------------------------*
 |  Plotting interpolated bandstructure       :                 T             |
 |   Number of K-path sections                :                 3             |
 |   Divisions along first K-path section     :                51             |
 |   Output format                            :           gnuplot             |
 |   Output mode                              :               s-k             |
 *----------------------------------------------------------------------------*
 |   K-space path sections:                                                   |
 |    From:  G    0.000  0.000  0.000     To:  A    0.500  0.500  0.000       |
 |    From:  A    0.500  0.500  0.000     To:  X    0.000  0.500  0.000       |
 |    From:  X    0.000  0.500  0.000     To:  Z    0.500  0.000  0.000       |
 *----------------------------------------------------------------------------*
 Time to read parameters        0.004 (sec)

 *---------------------------------- K-MESH ----------------------------------*
 +----------------------------------------------------------------------------+
 |                    Distance to Nearest-Neighbour Shells                    |
 |                    ------------------------------------                    |
 |          Shell             Distance (Ang^-1)          Multiplicity         |
 |          -----             -----------------          ------------         |
 |             1                   0.159433                      2            |
 |             2                   0.268874                      2            |
 |             3                   0.312590                      4            |
 |             4                   0.318867                      2            |
 |             5                   0.417096                      4            |
 |             6                   0.478300                      2            |
 |             7                   0.537749                      2            |
 |             8                   0.548693                      4            |
 |             9                   0.560885                      4            |
 |            10                   0.625179                      4            |
 |            11                   0.637733                      2            |
 |            12                   0.692096                      4            |
 |            13                   0.719683                      4            |
 |            14                   0.797166                      2            |
 |            15                   0.806623                      2            |
 |            16                   0.822228                      4            |
 |            17                   0.834192                      4            |
 |            18                   0.841289                      4            |
 |            19                   0.867362                      4            |
 |            20                   0.911522                      2            |
 |            21                   0.911601                      2            |
 |            22                   0.925360                      4            |
 |            23                   0.925438                      4            |
 |            24                   0.937769                      4            |
 |            25                   0.961586                      4            |
 |            26                   0.965685                      4            |
 |            27                   0.965760                      4            |
 |            28                   0.987581                      2            |
 |            29                   0.987799                      2            |
 |            30                   1.000367                      4            |
 |            31                   1.000583                      4            |
 |            32                   1.028272                      4            |
 |            33                   1.029390                      4            |
 |            34                   1.029459                      4            |
 |            35                   1.037782                      4            |
 |            36                   1.037990                      4            |
 |            37                   1.075497                      2            |
 |            38                   1.087250                      4            |
 |            39                   1.097309                      4            |
 |            40                   1.097505                      4            |
 |            41                   1.112464                      4            |
 |            42                   1.112528                      4            |
 |            43                   1.121771                      4            |
 |            44                   1.124431                      2            |
 |            45                   1.124750                      2            |
 |            46                   1.134070                      4            |
 |            47                   1.135678                      4            |
 |            48                   1.135994                      4            |
 |            49                   1.168769                      4            |
 |            50                   1.169076                      4            |
 |            51                   1.175593                      4            |
 |            52                   1.175776                      4            |
 |            53                   1.177058                      4            |
 |            54                   1.210928                      4            |
 |            55                   1.210987                      4            |
 |            56                   1.221931                      4            |
 |            57                   1.222225                      4            |
 |            58                   1.250359                      4            |
 |            59                   1.269169                      4            |
 |            60                   1.269339                      4            |
 |            61                   1.292691                      4            |
 |            62                   1.292968                      4            |
 |            63                   1.303059                      2            |
 |            64                   1.303444                      2            |
 |            65                   1.312776                      4            |
 |            66                   1.313159                      4            |
 |            67                   1.338719                      4            |
 |            68                   1.341506                      4            |
 |            69                   1.341880                      4            |
 |            70                   1.344371                      2            |
 |            71                   1.353792                      4            |
 |            72                   1.378339                      4            |
 |            73                   1.378600                      4            |
 |            74                   1.381669                      4            |
 |            75                   1.388068                      4            |
 |            76                   1.388430                      4            |
 |            77                   1.426921                      4            |
 |            78                   1.450747                      4            |
 |            79                   1.451093                      4            |
 |            80                   1.487964                      4            |
 |            81                   1.508697                      2            |
 |            82                   1.509125                      2            |
 |            83                   1.517097                      4            |
 |            84                   1.517523                      4            |
 |            85                   1.527559                      4            |
 |            86                   1.527888                      4            |
 |            87                   1.542025                      4            |
 |            88                   1.542444                      4            |
 |            89                   1.562949                      4            |
 |            90                   1.582699                      4            |
 |            91                   1.583107                      4            |
 |            92                   1.613246                      2            |
 |            93                   1.621105                      4            |
 |            94                   1.637947                      4            |
 |            95                   1.638341                      4            |
 |            96                   1.644456                      4            |
 |            97                   1.682656                      4            |
 |            98                   1.706353                      4            |
 |            99                   1.706731                      4            |
 |           100                   1.731749                      2            |
 |           101                   1.732205                      2            |
 |           102                   1.734723                      4            |
 |           103                   1.739073                      4            |
 |           104                   1.739527                      4            |
 |           105                   1.760861                      4            |
 |           106                   1.761309                      4            |
 |           107                   1.796587                      4            |
 |           108                   1.797027                      4            |
 |           109                   1.799454                      4            |
 |           110                   1.803187                      2            |
 |           111                   1.810222                      4            |
 |           112                   1.823044                      2            |
 |           113                   1.823202                      2            |
 |           114                   1.830002                      4            |
 |           115                   1.830159                      4            |
 |           116                   1.831163                      4            |
 |           117                   1.845443                      4            |
 |           118                   1.845871                      4            |
 |           119                   1.850720                      4            |
 |           120                   1.850876                      4            |
 |           121                   1.865544                      4            |
 |           122                   1.881511                      2            |
 |           123                   1.881816                      2            |
 |           124                   1.882120                      2            |
 |           125                   1.884744                      4            |
 |           126                   1.884897                      4            |
 |           127                   1.888254                      4            |
 |           128                   1.888558                      4            |
 |           129                   1.888860                      4            |
 |           130                   1.906418                      4            |
 |           131                   1.906832                      4            |
 |           132                   1.908339                      4            |
 |           133                   1.908640                      4            |
 |           134                   1.908940                      4            |
 |           135                   1.912639                      4            |
 |           136                   1.931371                      4            |
 |           137                   1.931520                      4            |
 |           138                   1.941354                      4            |
 |           139                   1.941649                      4            |
 |           140                   1.941944                      4            |
 |           141                   1.966299                      2            |
 |           142                   1.966774                      2            |
 |           143                   1.971537                      4            |
 |           144                   1.972752                      4            |
 |           145                   1.973225                      4            |
 |           146                   1.975161                      2            |
 |           147                   1.975598                      2            |
 |           148                   1.981586                      4            |
 |           149                   1.982020                      4            |
 |           150                   1.986652                      4            |
 |           151                   1.986941                      4            |
 |           152                   1.987229                      4            |
 |           153                   1.989715                      4            |
 |           154                   1.989859                      4            |
 |           155                   1.991986                      4            |
 |           156                   1.992454                      4            |
 |           157                   2.000734                      4            |
 |           158                   2.001165                      4            |
 |           159                   2.023636                      4            |
 |           160                   2.024097                      4            |
 |           161                   2.032248                      4            |
 |           162                   2.032672                      4            |
 |           163                   2.043418                      4            |
 |           164                   2.043699                      4            |
 |           165                   2.043979                      4            |
 |           166                   2.067132                      4            |
 |           167                   2.067584                      4            |
 |           168                   2.075564                      4            |
 |           169                   2.075979                      4            |
 |           170                   2.099292                      2            |
 |           171                   2.099840                      2            |
 |           172                   2.105338                      4            |
 |           173                   2.105883                      4            |
 |           174                   2.121746                      4            |
 |           175                   2.122186                      4            |
 |           176                   2.123371                      4            |
 |           177                   2.123912                      4            |
 |           178                   2.129962                      4            |
 |           179                   2.130366                      4            |
 |           180                   2.150994                      2            |
 |           181                   2.153091                      4            |
 |           182                   2.153624                      4            |
 |           183                   2.156895                      4            |
 |           184                   2.174500                      4            |
 |           185                   2.194022                      4            |
 |           186                   2.194545                      4            |
 |           187                   2.203530                      4            |
 |           188                   2.208686                      2            |
 |           189                   2.209174                      2            |
 |           190                   2.214433                      4            |
 |           191                   2.214920                      4            |
 |           192                   2.231585                      4            |
 |           193                   2.232067                      4            |
 |           194                   2.243542                      4            |
 |           195                   2.245552                      4            |
 |           196                   2.246063                      4            |
 |           197                   2.248862                      2            |
 |           198                   2.249501                      2            |
 |           199                   2.254507                      4            |
 |           200                   2.255144                      4            |
 |           201                   2.259882                      4            |
 |           202                   2.260358                      4            |
 |           203                   2.271356                      4            |
 |           204                   2.271988                      4            |
 |           205                   2.293959                      4            |
 |           206                   2.298913                      4            |
 |           207                   2.299163                      4            |
 |           208                   2.299381                      4            |
 |           209                   2.299788                      4            |
 |           210                   2.337538                      4            |
 |           211                   2.338152                      4            |
 |           212                   2.348142                      4            |
 |           213                   2.348600                      4            |
 |           214                   2.385971                      4            |
 |           215                   2.386572                      4            |
 |           216                   2.419157                      2            |
 |           217                   2.419868                      2            |
 |           218                   2.419869                      2            |
 |           219                   2.424405                      4            |
 |           220                   2.425115                      4            |
 |           221                   2.425116                      4            |
 |           222                   2.440081                      4            |
 |           223                   2.440786                      4            |
 |           224                   2.440788                      4            |
 |           225                   2.456592                      2            |
 |           226                   2.457089                      2            |
 |           227                   2.461761                      4            |
 |           228                   2.462256                      4            |
 |           229                   2.465987                      4            |
 |           230                   2.466685                      4            |
 |           231                   2.466686                      4            |
 |           232                   2.477200                      4            |
 |           233                   2.477693                      4            |
 |           234                   2.501804                      4            |
 |           235                   2.502492                      4            |
 |           236                   2.502493                      4            |
 |           237                   2.502722                      4            |
 |           238                   2.503209                      4            |
 |           239                   2.538021                      4            |
 |           240                   2.538502                      4            |
 |           241                   2.547115                      4            |
 |           242                   2.547791                      4            |
 |           243                   2.547792                      4            |
 |           244                   2.582696                      4            |
 |           245                   2.583169                      4            |
 |           246                   2.606117                      2            |
 |           247                   2.606889                      2            |
 |           248                   2.610990                      4            |
 |           249                   2.611759                      4            |
 |           250                   2.625552                      4            |
 |           251                   2.626318                      4            |
 |           252                   2.649645                      4            |
 |           253                   2.650404                      4            |
 |           254                   2.683012                      4            |
 |           255                   2.683761                      4            |
 |           256                   2.688743                      2            |
 |           257                   2.693465                      4            |
 |           258                   2.707584                      4            |
 |           259                   2.708080                      2            |
 |           260                   2.708159                      2            |
 |           261                   2.708502                      2            |
 |           262                   2.709006                      2            |
 |           263                   2.712769                      4            |
 |           264                   2.712848                      4            |
 |           265                   2.713190                      4            |
 |           266                   2.713693                      4            |
 |           267                   2.725311                      4            |
 |           268                   2.726049                      4            |
 |           269                   2.726788                      4            |
 |           270                   2.726867                      4            |
 |           271                   2.727207                      4            |
 |           272                   2.727707                      4            |
 |           273                   2.730953                      4            |
 |           274                   2.734566                      2            |
 |           275                   2.734802                      2            |
 |           276                   2.739210                      4            |
 |           277                   2.739446                      4            |
 |           278                   2.749994                      4            |
 |           279                   2.750072                      4            |
 |           280                   2.750410                      4            |
 |           281                   2.750906                      4            |
 |           282                   2.753094                      4            |
 |           283                   2.753329                      4            |
 |           284                   2.763339                      4            |
 |           285                   2.776081                      4            |
 |           286                   2.776313                      4            |
 |           287                   2.782157                      4            |
 |           288                   2.782235                      4            |
 |           289                   2.782568                      4            |
 |           290                   2.783058                      4            |
 |           291                   2.786861                      2            |
 |           292                   2.787248                      2            |
 |           293                   2.791418                      4            |
 |           294                   2.791804                      4            |
 |           295                   2.804427                      4            |
 |           296                   2.805044                      4            |
 |           297                   2.805428                      4            |
 |           298                   2.806414                      2            |
 |           299                   2.807233                      2            |
 |           300                   2.807945                      4            |
 |           301                   2.808175                      4            |
 |           302                   2.810939                      4            |
 |           303                   2.811757                      4            |
 |           304                   2.822972                      4            |
 |           305                   2.823048                      4            |
 |           306                   2.823377                      4            |
 |           307                   2.823860                      4            |
 |           308                   2.824471                      4            |
 |           309                   2.825284                      4            |
 |           310                   2.827608                      4            |
 |           311                   2.827989                      4            |
 |           312                   2.846881                      4            |
 |           313                   2.847688                      4            |
 |           314                   2.848390                      4            |
 |           315                   2.848617                      4            |
 |           316                   2.858898                      4            |
 |           317                   2.859275                      4            |
 |           318                   2.863551                      2            |
 |           319                   2.864077                      2            |
 |           320                   2.867986                      4            |
 |           321                   2.868512                      4            |
 |           322                   2.877962                      4            |
 |           323                   2.878760                      4            |
 |           324                   2.881250                      4            |
 |           325                   2.881773                      4            |
 |           326                   2.898632                      4            |
 |           327                   2.899004                      4            |
 |           328                   2.903222                      4            |
 |           329                   2.903741                      4            |
 |           330                   2.917437                      4            |
 |           331                   2.918224                      4            |
 |           332                   2.933706                      4            |
 |           333                   2.934219                      4            |
 |           334                   2.957617                      2            |
 |           335                   2.961911                      4            |
 |           336                   2.962742                      2            |
 |           337                   2.963394                      2            |
 |           338                   2.963396                      2            |
 |           339                   2.963903                      2            |
 |           340                   2.967029                      4            |
 |           341                   2.967680                      4            |
 |           342                   2.967682                      4            |
 |           343                   2.968188                      4            |
 |           344                   2.972440                      4            |
 |           345                   2.972947                      4            |
 |           346                   2.974756                      4            |
 |           347                   2.979852                      4            |
 |           348                   2.980500                      4            |
 |           349                   2.980502                      4            |
 |           350                   2.981006                      4            |
 |           351                   2.996042                      4            |
 |           352                   3.001102                      4            |
 |           353                   3.001746                      4            |
 |           354                   3.001748                      4            |
 |           355                   3.002248                      4            |
 |           356                   3.017393                      2            |
 |           357                   3.018250                      2            |
 |           358                   3.021602                      4            |
 |           359                   3.022458                      4            |
 |           360                   3.025591                      4            |
 |           361                   3.030601                      4            |
 |           362                   3.031239                      4            |
 |           363                   3.031241                      4            |
 |           364                   3.031736                      4            |
 |           365                   3.034195                      4            |
 |           366                   3.035046                      4            |
 |           367                   3.055067                      4            |
 |           368                   3.055913                      4            |
 |           369                   3.063164                      4            |
 |           370                   3.068113                      4            |
 |           371                   3.068743                      4            |
 |           372                   3.068744                      4            |
 |           373                   3.069234                      4            |
 |           374                   3.082263                      2            |
 |           375                   3.083031                      2            |
 |           376                   3.084050                      4            |
 |           377                   3.084888                      4            |
 |           378                   3.086383                      4            |
 |           379                   3.087151                      4            |
 |           380                   3.098713                      4            |
 |           381                   3.099477                      4            |
 |           382                   3.119153                      4            |
 |           383                   3.119912                      4            |
 |           384                   3.120919                      4            |
 |           385                   3.121747                      4            |
 |           386                   3.147546                      4            |
 |           387                   3.148299                      4            |
 |           388                   3.183680                      4            |
 |           389                   3.184424                      4            |
 |           390                   3.219850                      2            |
 |           391                   3.220562                      2            |
 |           392                   3.220719                      2            |
 |           393                   3.221074                      2            |
 |           394                   3.223795                      4            |
 |           395                   3.224506                      4            |
 |           396                   3.224663                      4            |
 |           397                   3.225018                      4            |
 |           398                   3.226491                      2            |
 |           399                   3.230428                      4            |
 |           400                   3.235600                      4            |
 |           401                   3.236309                      4            |
 |           402                   3.236465                      4            |
 |           403                   3.236819                      4            |
 |           404                   3.236966                      2            |
 |           405                   3.237853                      2            |
 |           406                   3.240890                      4            |
 |           407                   3.241776                      4            |
 |           408                   3.242209                      4            |
 |           409                   3.252633                      4            |
 |           410                   3.253516                      4            |
 |           411                   3.255181                      4            |
 |           412                   3.255885                      4            |
 |           413                   3.256041                      4            |
 |           414                   3.256392                      4            |
 |           415                   3.261750                      4            |
 |           416                   3.272112                      4            |
 |           417                   3.272990                      4            |
 |           418                   3.282398                      4            |
 |           419                   3.283096                      4            |
 |           420                   3.283251                      4            |
 |           421                   3.283599                      4            |
 |           422                   3.288913                      4            |
 |           423                   3.299190                      4            |
 |           424                   3.300060                      4            |
 |           425                   3.317063                      4            |
 |           426                   3.317754                      4            |
 |           427                   3.317907                      4            |
 |           428                   3.318252                      4            |
 |           429                   3.323510                      4            |
 |           430                   3.333680                      4            |
 |           431                   3.334541                      4            |
 |           432                   3.373294                      2            |
 |           433                   3.374251                      2            |
 |           434                   3.377059                      4            |
 |           435                   3.378016                      4            |
 |           436                   3.388331                      4            |
 |           437                   3.389284                      4            |
 |           438                   3.407034                      4            |
 |           439                   3.407982                      4            |
 |           440                   3.433047                      4            |
 |           441                   3.433988                      4            |
 |           442                   3.463498                      2            |
 |           443                   3.464410                      2            |
 |           444                   3.466206                      4            |
 |           445                   3.467138                      4            |
 |           446                   3.467166                      4            |
 |           447                   3.468077                      4            |
 |           448                   3.478146                      4            |
 |           449                   3.479054                      4            |
 |           450                   3.479499                      2            |
 |           451                   3.480015                      2            |
 |           452                   3.483150                      4            |
 |           453                   3.483665                      4            |
 |           454                   3.494079                      4            |
 |           455                   3.494593                      4            |
 |           456                   3.495365                      2            |
 |           457                   3.496368                      4            |
 |           458                   3.497272                      4            |
 |           459                   3.498999                      4            |
 |           460                   3.509880                      4            |
 |           461                   3.512219                      4            |
 |           462                   3.512730                      4            |
 |           463                   3.521722                      4            |
 |           464                   3.522619                      4            |
 |           465                   3.527938                      4            |
 |           466                   3.537459                      4            |
 |           467                   3.537967                      4            |
 |           468                   3.540533                      2            |
 |           469                   3.541567                      2            |
 |           470                   3.544121                      4            |
 |           471                   3.545154                      4            |
 |           472                   3.553067                      4            |
 |           473                   3.554053                      4            |
 |           474                   3.554863                      4            |
 |           475                   3.554942                      4            |
 |           476                   3.555892                      4            |
 |           477                   3.569648                      4            |
 |           478                   3.570151                      4            |
 |           479                   3.572694                      4            |
 |           480                   3.573719                      4            |
 |           481                   3.585115                      4            |
 |           482                   3.597510                      4            |
 |           483                   3.598527                      4            |
 |           484                   3.606374                      2            |
 |           485                   3.609897                      4            |
 |           486                   3.616304                      2            |
 |           487                   3.616463                      2            |
 |           488                   3.619817                      4            |
 |           489                   3.619975                      4            |
 |           490                   3.620443                      4            |
 |           491                   3.629166                      4            |
 |           492                   3.630175                      4            |
 |           493                   3.630335                      4            |
 |           494                   3.630493                      4            |
 |           495                   3.637954                      4            |
 |           496                   3.646088                      2            |
 |           497                   3.646403                      2            |
 |           498                   3.647797                      4            |
 |           499                   3.647955                      4            |
 |           500                   3.649572                      4            |
 |           501                   3.649887                      4            |
 |           502                   3.660005                      4            |
 |           503                   3.660319                      4            |
 |           504                   3.662327                      4            |
 |           505                   3.672105                      4            |
 |           506                   3.672262                      4            |
 |           507                   3.677327                      4            |
 |           508                   3.677639                      4            |
 |           509                   3.693428                      4            |
 |           510                   3.695247                      2            |
 |           511                   3.695711                      2            |
 |           512                   3.695713                      2            |
 |           513                   3.696644                      2            |
 |           514                   3.698685                      4            |
 |           515                   3.699149                      4            |
 |           516                   3.699151                      4            |
 |           517                   3.700080                      4            |
 |           518                   3.701441                      4            |
 |           519                   3.701751                      4            |
 |           520                   3.703124                      4            |
 |           521                   3.703279                      4            |
 |           522                   3.708979                      4            |
 |           523                   3.709442                      4            |
 |           524                   3.709444                      4            |
 |           525                   3.710371                      4            |
 |           526                   3.719707                      2            |
 |           527                   3.720807                      2            |
 |           528                   3.723123                      4            |
 |           529                   3.724221                      4            |
 |           530                   3.726073                      4            |
 |           531                   3.726534                      4            |
 |           532                   3.726536                      4            |
 |           533                   3.727458                      4            |
 |           534                   3.732216                      4            |
 |           535                   3.732523                      4            |
 |           536                   3.733349                      4            |
 |           537                   3.734445                      4            |
 |           538                   3.739839                      2            |
 |           539                   3.740358                      2            |
 |           540                   3.743236                      4            |
 |           541                   3.743754                      4            |
 |           542                   3.749874                      4            |
 |           543                   3.750331                      4            |
 |           544                   3.750332                      4            |
 |           545                   3.750334                      4            |
 |           546                   3.751250                      4            |
 |           547                   3.751423                      4            |
 |           548                   3.753408                      4            |
 |           549                   3.753925                      4            |
 |           550                   3.763022                      2            |
 |           551                   3.763632                      2            |
 |           552                   3.764240                      2            |
 |           553                   3.766398                      4            |
 |           554                   3.767007                      4            |
 |           555                   3.767614                      4            |
 |           556                   3.770301                      4            |
 |           557                   3.770815                      4            |
 |           558                   3.773980                      4            |
 |           559                   3.775064                      4            |
 |           560                   3.776507                      4            |
 |           561                   3.777116                      4            |
 |           562                   3.777721                      4            |
 |           563                   3.780255                      4            |
 |           564                   3.780708                      4            |
 |           565                   3.780711                      4            |
 |           566                   3.781620                      4            |
 |           567                   3.793297                      4            |
 |           568                   3.793824                      4            |
 |           569                   3.793903                      4            |
 |           570                   3.794335                      4            |
 |           571                   3.794505                      4            |
 |           572                   3.804168                      4            |
 |           573                   3.805244                      4            |
 |           574                   3.816679                      4            |
 |           575                   3.817280                      4            |
 |           576                   3.817879                      4            |
 |           577                   3.823856                      4            |
 |           578                   3.824363                      4            |
 |           579                   3.846532                      4            |
 |           580                   3.847129                      4            |
 |           581                   3.847723                      4            |
 |           582                   3.848428                      2            |
 |           583                   3.849174                      2            |
 |           584                   3.851729                      4            |
 |           585                   3.852474                      4            |
 |           586                   3.861615                      4            |
 |           587                   3.862359                      4            |
 |           588                   3.878037                      4            |
 |           589                   3.878777                      4            |
 |           590                   3.900910                      4            |
 |           591                   3.901646                      4            |
 |           592                   3.909176                      2            |
 |           593                   3.910333                      2            |
 |           594                   3.912426                      4            |
 |           595                   3.913582                      4            |
 |           596                   3.922159                      4            |
 |           597                   3.923312                      4            |
 |           598                   3.930124                      4            |
 |           599                   3.930854                      4            |
 |           600                   3.932598                      2            |
 +----------------------------------------------------------------------------+
 | The b-vectors are chosen automatically                                     |
 | SVD found small singular value, Rejecting this shell and trying the next   |
 | SVD found small singular value, Rejecting this shell and trying the next   |
 | SVD found small singular value, Rejecting this shell and trying the next   |
 | SVD found small singular value, Rejecting this shell and trying the next   |
 | SVD found small singular value, Rejecting this shell and trying the next   |
 | SVD found small singular value, Rejecting this shell and trying the next   |
 | SVD found small singular value, Rejecting this shell and trying the next   |
 | SVD found small singular value, Rejecting this shell and trying the next   |
 | SVD found small singular value, Rejecting this shell and trying the next   |
 | SVD found small singular value, Rejecting this shell and trying the next   |
 | SVD found small singular value, Rejecting this shell and trying the next   |
 | The following shells are used:   1,  2, 20, 21                             |
 +----------------------------------------------------------------------------+
 |                        Shell   # Nearest-Neighbours                        |
 |                        -----   --------------------                        |
 |                          1               2                                 |
 |                          2               2                                 |
 |                         20               2                                 |
 |                         21               2                                 |
 +----------------------------------------------------------------------------+
 | Completeness relation is fully satisfied [Eq. (B1), PRB 56, 12847 (1997)]  |
 +----------------------------------------------------------------------------+
 |                  b_k Vectors (Ang^-1) and Weights (Ang^2)                  |
 |                  ----------------------------------------                  |
 |            No.         b_k(x)      b_k(y)      b_k(z)        w_b           |
 |            ---        --------------------------------     --------        |
 |             1         0.000000    0.159433    0.000000    19.670351        |
 |             2         0.000000   -0.159433    0.000000    19.670351        |
 |             3         0.245464    0.000000    0.109731     6.762489        |
 |             4        -0.245464    0.000000   -0.109731     6.762489        |
 |             5        -0.245464    0.000000    0.877850     0.308163        |
 |             6         0.245464    0.000000   -0.877850     0.308163        |
 |             7        -0.490928    0.000000    0.768119     0.306941        |
 |             8         0.490928    0.000000   -0.768119     0.306941        |
 +----------------------------------------------------------------------------+
 |                           b_k Directions (Ang^-1)                          |
 |                           -----------------------                          |
 |            No.           x           y           z                         |
 |            ---        --------------------------------                     |
 |             1         0.000000    0.159433    0.000000                     |
 |             2         0.245464    0.000000    0.109731                     |
 |             3        -0.245464    0.000000    0.877850                     |
 |             4        -0.490928    0.000000    0.768119                     |
 +----------------------------------------------------------------------------+
  
 Time to write kmesh            0.115 (sec)

 Finished setting up k-point neighbours.

 Exiting wannier_setup in wannier90 17:17:23 
 
             +---------------------------------------------------+
             |                                                   |
             |                   WANNIER90                       |
             |                                                   |
             +---------------------------------------------------+
             |                                                   |
             |        Welcome to the Maximally-Localized         |
             |        Generalized Wannier Functions code         |
             |            http://www.wannier.org                 |
             |                                                   |
             |  Wannier90 v2.x Authors:                          |
             |    Arash A. Mostofi  (Imperial College London)    |
             |    Giovanni Pizzi    (EPFL)                       |
             |    Ivo Souza         (Universidad del Pais Vasco) |
             |    Jonathan R. Yates (University of Oxford)       |
             |                                                   |
             |  Wannier90 Contributors:                          |
             |    Young-Su Lee       (KIST, S. Korea)            |
             |    Matthew Shelley    (Imperial College London)   |
             |    Nicolas Poilvert   (Penn State University)     |
             |    Raffaello Bianco   (Paris 6 and CNRS)          |
             |    Gabriele Sclauzero (ETH Zurich)                |
             |    David Strubbe (MIT, USA)                       |
             |    Rei Sakuma (Lund University, Sweden)           |
             |    Yusuke Nomura (U. Tokyo, Japan)                |
             |    Takashi Koretsune (Riken, Japan)               |
             |    Yoshiro Nohara (ASMS Co. Ltd., Japan)          |
             |    Ryotaro Arita (Riken, Japan)                   |
             |    Lorenzo Paulatto (UPMC Paris)                  |
             |    Florian Thole (ETH Zurich)                     |
             |    Pablo Garcia Fernandez (Unican, Spain)         |
             |    Dominik Gresch (ETH Zurich)                    |
             |    Samuel Ponce (University of Oxford)            |
             |    Marco Gibertini (EPFL)                         |
             |    Christian Stieger (ETHZ, CH)                   |
             |    Stepan Tsirkin (Universidad del Pais Vasco)    |
             |                                                   |
             |  Wannier77 Authors:                               |
             |    Nicola Marzari    (EPFL)                       |
             |    Ivo Souza         (Universidad del Pais Vasco) |
             |    David Vanderbilt  (Rutgers University)         |
             |                                                   |
             |  Please cite                                      |
             |                                                   |
             |  [ref] "An updated version of Wannier90:          |
             |        A Tool for Obtaining Maximally Localised   |
             |        Wannier Functions", A. A. Mostofi,         |
             |        J. R. Yates, G. Pizzi, Y. S. Lee,          |
             |        I. Souza, D. Vanderbilt and N. Marzari,    |
             |        Comput. Phys. Commun. 185, 2309 (2014)     |
             |        http://dx.doi.org/10.1016/j.cpc.2014.05.003|
             |                                                   |
             |  in any publications arising from the use of      |
             |  this code. For the method please cite            |
             |                                                   |
             |  [ref] "Maximally Localized Generalised Wannier   |
             |         Functions for Composite Energy Bands"     |
             |         N. Marzari and D. Vanderbilt              |
             |         Phys. Rev. B 56 12847 (1997)              |
             |                                                   |
             |  [ref] "Maximally Localized Wannier Functions     |
             |         for Entangled Energy Bands"               |
             |         I. Souza, N. Marzari and D. Vanderbilt    |
             |         Phys. Rev. B 65 035109 (2001)             |
             |                                                   |
             |                                                   |
             | Copyright (c) 1996-2017                           |
             |        Arash A. Mostofi, Jonathan R. Yates,       |
             |        Young-Su Lee, Giovanni Pizzi, Ivo Souza,   |
             |        David Vanderbilt and Nicola Marzari        |
             |                                                   |
             |        Release: 2.1.0   13th January 2017         |
             |                                                   |
             | This program is free software; you can            |
             | redistribute it and/or modify it under the terms  |
             | of the GNU General Public License as published by |
             | the Free Software Foundation; either version 2 of |
             | the License, or (at your option) any later version|
             |                                                   |
             | This program is distributed in the hope that it   |
             | will be useful, but WITHOUT ANY WARRANTY; without |
             | even the implied warranty of MERCHANTABILITY or   |
             | FITNESS FOR A PARTICULAR PURPOSE. See the GNU     |
             | General Public License for more details.          |
             |                                                   |
             | You should have received a copy of the GNU General|
             | Public License along with this program; if not,   |
             | write to the Free Software Foundation, Inc.,      |
             | 675 Mass Ave, Cambridge, MA 02139, USA.           |
             |                                                   |
             +---------------------------------------------------+
             |    Execution started on  9Feb2022 at 08:31:12     |
             +---------------------------------------------------+
 
 ******************************************************************************
 * -> Using CODATA 2006 constant values                                       *
 *    (http://physics.nist.gov/cuu/Constants/index.html)                      *
 * -> Using Bohr value from CODATA                                            *
 ******************************************************************************
 

 Wannier90 is running in LIBRARY MODE

 Setting up k-point neighbours...

 Ignoring <mp_grid> in input file
 Ignoring <unit_cell_cart> in input file
 Ignoring <kpoints> in input file
 Ignoring <atoms_cart> in input file
 
                                    ------
                                    SYSTEM
                                    ------
 
                              Lattice Vectors (Ang)
                    a_1     4.266200   0.000000   0.000000
                    a_2     0.000000  39.409500   0.000000
                    a_3    -1.422065   0.000000   3.181100
 
                   Unit Cell Volume:     534.83451  (Ang^3)
 
                        Reciprocal-Space Vectors (Ang^-1)
                    b_1     1.472783   0.000000   0.658386
                    b_2     0.000000   0.159433   0.000000
                    b_3     0.000000   0.000000   1.975161
  
 *----------------------------------------------------------------------------*
 |   Site       Fractional Coordinate          Cartesian Coordinate (Ang)     |
 +----------------------------------------------------------------------------+
 | C    1   0.99973   0.00001   0.00000   |    4.26503   0.00031   0.00000    |
 | C    2   0.33325   0.00001   0.00000   |    1.42170   0.00031   0.00000    |
 | C    3   0.49973   0.03122   0.00000   |    2.13193   1.23049   0.00000    |
 | C    4   0.83325   0.03122   0.00000   |    3.55480   1.23049   0.00000    |
 | C    5   0.99990   0.06246   0.00000   |    4.26577   2.46157   0.00000    |
 | C    6   0.33301   0.06246   0.00000   |    1.42070   2.46148   0.00000    |
 | C    7   0.49967   0.09370   0.00000   |    2.13168   3.69262   0.00000    |
 | C    8   0.83325   0.09370   0.00000   |    3.55481   3.69268   0.00000    |
 | C    9   0.99973   0.12492   0.00000   |    4.26504   4.92321   0.00000    |
 | C   10   0.33327   0.12493   0.00000   |    1.42178   4.92328   0.00000    |
 | C   11   0.49994   0.15617   0.00000   |    2.13284   6.15476   0.00000    |
 | C   12   0.83313   0.15617   0.00000   |    3.55430   6.15472   0.00000    |
 | C   13   0.99968   0.18742   0.00000   |    4.26484   7.38605   0.00000    |
 | C   14   0.33346   0.18742   0.00000   |    1.42260   7.38619   0.00000    |
 | C   15   0.49977   0.21863   0.00000   |    2.13210   8.61629   0.00000    |
 | C   16   0.83340   0.21863   0.00000   |    3.55547   8.61618   0.00000    |
 | C   17   0.99983   0.24990   0.00000   |    4.26547   9.84847   0.00000    |
 | C   18   0.33334   0.24990   0.00000   |    1.42208   9.84851   0.00000    |
 | C   19   0.49924   0.28117   0.00000   |    2.12986  11.08080   0.00000    |
 | C   20   0.83390   0.28117   0.00000   |    3.55760  11.08074   0.00000    |
 | C   21   0.00216   0.31215   0.00000   |    0.00924  12.30166   0.00000    |
 | C   22   0.33091   0.31215   0.00000   |    1.41175  12.30161   0.00000    |
 | C   23   0.50012   0.34329   0.00000   |    2.13361  13.52895   0.00000    |
 | C   24   0.83288   0.34329   0.00000   |    3.55322  13.52897   0.00000    |
 | C   25   0.00012   0.68794   0.00000   |    0.00051  27.11135   0.00000    |
 | C   26   0.33288   0.68794   0.00000   |    1.42012  27.11132   0.00000    |
 | C   27   0.50216   0.71908   0.00000   |    2.14234  28.33860   0.00000    |
 | C   28   0.83091   0.71908   0.00000   |    3.54485  28.33865   0.00000    |
 | C   29   0.99924   0.75006   0.00000   |    4.26296  29.55946   0.00000    |
 | C   30   0.33390   0.75006   0.00000   |    1.42450  29.55952   0.00000    |
 | C   31   0.49983   0.78133   0.00000   |    2.13237  30.79183   0.00000    |
 | C   32   0.83334   0.78133   0.00000   |    3.55518  30.79179   0.00000    |
 | C   33   0.99977   0.81260   0.00000   |    4.26520  32.02397   0.00000    |
 | C   34   0.33340   0.81260   0.00000   |    1.42237  32.02408   0.00000    |
 | C   35   0.49968   0.84381   0.00000   |    2.13174  33.25421   0.00000    |
 | C   36   0.83346   0.84381   0.00000   |    3.55570  33.25407   0.00000    |
 | C   37   0.99994   0.87506   0.00000   |    4.26594  34.48550   0.00000    |
 | C   38   0.33313   0.87506   0.00000   |    1.42120  34.48554   0.00000    |
 | C   39   0.49973   0.90631   0.00000   |    2.13194  35.71705   0.00000    |
 | C   40   0.83327   0.90630   0.00000   |    3.55488  35.71698   0.00000    |
 | C   41   0.99967   0.93753   0.00000   |    4.26478  36.94768   0.00000    |
 | C   42   0.33325   0.93753   0.00000   |    1.42171  36.94761   0.00000    |
 | C   43   0.49990   0.96877   0.00000   |    2.13267  38.17873   0.00000    |
 | C   44   0.83301   0.96877   0.00000   |    3.55380  38.17882   0.00000    |
 | O    1   0.92883   0.37418   0.00000   |    3.96259  14.74613   0.00000    |
 | O    2   0.40409   0.37417   0.00000   |    1.72392  14.74600   0.00000    |
 | O    3   0.42883   0.65705   0.00000   |    1.82949  25.89417   0.00000    |
 | O    4   0.90409   0.65706   0.00000   |    3.85702  25.89430   0.00000    |
 *----------------------------------------------------------------------------*
  
                                ------------
                                K-POINT GRID
                                ------------
  
             Grid size =  6 x  1 x  2      Total points =   12
  
  
 *---------------------------------- MAIN ------------------------------------*
 |  Number of Wannier Functions               :               188             |
 |  Number of input Bloch states              :               188             |
 |  Output verbosity (1=low, 5=high)          :                 1             |
 |  Timing Level (1=low, 5=high)              :                 1             |
[...]
 |           399                   3.230428                      4            |
 |           400                   3.235600                      4            |
 |           401                   3.236309                      4            |
 |           402                   3.236465                      4            |
 |           403                   3.236819                      4            |
 |           404                   3.236966                      2            |
 |           405                   3.237853                      2            |
 |           406                   3.240890                      4            |
 |           407                   3.241776                      4            |
 |           408                   3.242209                      4            |
 |           409                   3.252633                      4            |
 |           410                   3.253516                      4            |
 |           411                   3.255181                      4            |
 |           412                   3.255885                      4            |
 |           413                   3.256041                      4            |
 |           414                   3.256392                      4            |
 |           415                   3.261750                      4            |
 |           416                   3.272112                      4            |
 |           417                   3.272990                      4            |
 |           418                   3.282398                      4            |
 |           419                   3.283096                      4            |
 |           420                   3.283251                      4            |
 |           421                   3.283599                      4            |
 |           422                   3.288913                      4            |
 |           423                   3.299190                      4            |
 |           424                   3.300060                      4            |
 |           425                   3.317063                      4            |
 |           426                   3.317754                      4            |
 |           427                   3.317907                      4            |
 |           428                   3.318252                      4            |
 |           429                   3.323510                      4            |
 |           430                   3.333680                      4            |
 |           431                   3.334541                      4            |
 |           432                   3.373294                      2            |
 |           433                   3.374251                      2            |
 |           434                   3.377059                      4            |
 |           435                   3.378016                      4            |
 |           436                   3.388331                      4            |
 |           437                   3.389284                      4            |
 |           438                   3.407034                      4            |
 |           439                   3.407982                      4            |
 |           440                   3.433047                      4            |
 |           441                   3.433988                      4            |
 |           442                   3.463498                      2            |
 |           443                   3.464410                      2            |
 |           444                   3.466206                      4            |
 |           445                   3.467138                      4            |
 |           446                   3.467166                      4            |
 |           447                   3.468077                      4            |
 |           448                   3.478146                      4            |
 |           449                   3.479054                      4            |
 |           450                   3.479499                      2            |
 |           451                   3.480015                      2            |
 |           452                   3.483150                      4            |
 |           453                   3.483665                      4            |
 |           454                   3.494079                      4            |
 |           455                   3.494593                      4            |
 |           456                   3.495365                      2            |
 |           457                   3.496368                      4            |
 |           458                   3.497272                      4            |
 |           459                   3.498999                      4            |
 |           460                   3.509880                      4            |
 |           461                   3.512219                      4            |
 |           462                   3.512730                      4            |
 |           463                   3.521722                      4            |
 |           464                   3.522619                      4            |
 |           465                   3.527938                      4            |
 |           466                   3.537459                      4            |
 |           467                   3.537967                      4            |
 |           468                   3.540533                      2            |
 |           469                   3.541567                      2            |
 |           470                   3.544121                      4            |
 |           471                   3.545154                      4            |
 |           472                   3.553067                      4            |
 |           473                   3.554053                      4            |
 |           474                   3.554863                      4            |
 |           475                   3.554942                      4            |
 |           476                   3.555892                      4            |
 |           477                   3.569648                      4            |
 |           478                   3.570151                      4            |
 |           479                   3.572694                      4            |
 |           480                   3.573719                      4            |
 |           481                   3.585115                      4            |
 |           482                   3.597510                      4            |
 |           483                   3.598527                      4            |
 |           484                   3.606374                      2            |
 |           485                   3.609897                      4            |
 |           486                   3.616304                      2            |
 |           487                   3.616463                      2            |
 |           488                   3.619817                      4            |
 |           489                   3.619975                      4            |
 |           490                   3.620443                      4            |
 |           491                   3.629166                      4            |
 |           492                   3.630175                      4            |
 |           493                   3.630335                      4            |
 |           494                   3.630493                      4            |
 |           495                   3.637954                      4            |
 |           496                   3.646088                      2            |
 |           497                   3.646403                      2            |
 |           498                   3.647797                      4            |
 |           499                   3.647955                      4            |
 |           500                   3.649572                      4            |
 |           501                   3.649887                      4            |
 |           502                   3.660005                      4            |
 |           503                   3.660319                      4            |
 |           504                   3.662327                      4            |
 |           505                   3.672105                      4            |
 |           506                   3.672262                      4            |
 |           507                   3.677327                      4            |
 |           508                   3.677639                      4            |
 |           509                   3.693428                      4            |
 |           510                   3.695247                      2            |
 |           511                   3.695711                      2            |
 |           512                   3.695713                      2            |
 |           513                   3.696644                      2            |
 |           514                   3.698685                      4            |
 |           515                   3.699149                      4            |
 |           516                   3.699151                      4            |
 |           517                   3.700080                      4            |
 |           518                   3.701441                      4            |
 |           519                   3.701751                      4            |
 |           520                   3.703124                      4            |
 |           521                   3.703279                      4            |
 |           522                   3.708979                      4            |
 |           523                   3.709442                      4            |
 |           524                   3.709444                      4            |
 |           525                   3.710371                      4            |
 |           526                   3.719707                      2            |
 |           527                   3.720807                      2            |
 |           528                   3.723123                      4            |
 |           529                   3.724221                      4            |
 |           530                   3.726073                      4            |
 |           531                   3.726534                      4            |
 |           532                   3.726536                      4            |
 |           533                   3.727458                      4            |
 |           534                   3.732216                      4            |
 |           535                   3.732523                      4            |
 |           536                   3.733349                      4            |
 |           537                   3.734445                      4            |
 |           538                   3.739839                      2            |
 |           539                   3.740358                      2            |
 |           540                   3.743236                      4            |
 |           541                   3.743754                      4            |
 |           542                   3.749874                      4            |
 |           543                   3.750331                      4            |
 |           544                   3.750332                      4            |
 |           545                   3.750334                      4            |
 |           546                   3.751250                      4            |
 |           547                   3.751423                      4            |
 |           548                   3.753408                      4            |
 |           549                   3.753925                      4            |
 |           550                   3.763022                      2            |
 |           551                   3.763632                      2            |
 |           552                   3.764240                      2            |
 |           553                   3.766398                      4            |
 |           554                   3.767007                      4            |
 |           555                   3.767614                      4            |
 |           556                   3.770301                      4            |
 |           557                   3.770815                      4            |
 |           558                   3.773980                      4            |
 |           559                   3.775064                      4            |
 |           560                   3.776507                      4            |
 |           561                   3.777116                      4            |
 |           562                   3.777721                      4            |
 |           563                   3.780255                      4            |
 |           564                   3.780708                      4            |
 |           565                   3.780711                      4            |
 |           566                   3.781620                      4            |
 |           567                   3.793297                      4            |
 |           568                   3.793824                      4            |
 |           569                   3.793903                      4            |
 |           570                   3.794335                      4            |
 |           571                   3.794505                      4            |
 |           572                   3.804168                      4            |
 |           573                   3.805244                      4            |
 |           574                   3.816679                      4            |
 |           575                   3.817280                      4            |
 |           576                   3.817879                      4            |
 |           577                   3.823856                      4            |
 |           578                   3.824363                      4            |
 |           579                   3.846532                      4            |
 |           580                   3.847129                      4            |
 |           581                   3.847723                      4            |
 |           582                   3.848428                      2            |
 |           583                   3.849174                      2            |
 |           584                   3.851729                      4            |
 |           585                   3.852474                      4            |
 |           586                   3.861615                      4            |
 |           587                   3.862359                      4            |
 |           588                   3.878037                      4            |
 |           589                   3.878777                      4            |
 |           590                   3.900910                      4            |
 |           591                   3.901646                      4            |
 |           592                   3.909176                      2            |
 |           593                   3.910333                      2            |
 |           594                   3.912426                      4            |
 |           595                   3.913582                      4            |
 |           596                   3.922159                      4            |
 |           597                   3.923312                      4            |
 |           598                   3.930124                      4            |
 |           599                   3.930854                      4            |
 |           600                   3.932598                      2            |
 +----------------------------------------------------------------------------+
 | The b-vectors are chosen automatically                                     |
 | SVD found small singular value, Rejecting this shell and trying the next   |
 | SVD found small singular value, Rejecting this shell and trying the next   |
 | SVD found small singular value, Rejecting this shell and trying the next   |
 | SVD found small singular value, Rejecting this shell and trying the next   |
 | SVD found small singular value, Rejecting this shell and trying the next   |
 | SVD found small singular value, Rejecting this shell and trying the next   |
 | SVD found small singular value, Rejecting this shell and trying the next   |
 | SVD found small singular value, Rejecting this shell and trying the next   |
 | SVD found small singular value, Rejecting this shell and trying the next   |
 | SVD found small singular value, Rejecting this shell and trying the next   |
 | SVD found small singular value, Rejecting this shell and trying the next   |
 | The following shells are used:   1,  2, 20, 21                             |
 +----------------------------------------------------------------------------+
 |                        Shell   # Nearest-Neighbours                        |
 |                        -----   --------------------                        |
 |                          1               2                                 |
 |                          2               2                                 |
 |                         20               2                                 |
 |                         21               2                                 |
 +----------------------------------------------------------------------------+
 | Completeness relation is fully satisfied [Eq. (B1), PRB 56, 12847 (1997)]  |
 +----------------------------------------------------------------------------+
 |                  b_k Vectors (Ang^-1) and Weights (Ang^2)                  |
 |                  ----------------------------------------                  |
 |            No.         b_k(x)      b_k(y)      b_k(z)        w_b           |
 |            ---        --------------------------------     --------        |
 |             1         0.000000    0.159433    0.000000    19.670351        |
 |             2         0.000000   -0.159433    0.000000    19.670351        |
 |             3         0.245464    0.000000    0.109731     6.762489        |
 |             4        -0.245464    0.000000   -0.109731     6.762489        |
 |             5        -0.245464    0.000000    0.877850     0.308163        |
 |             6         0.245464    0.000000   -0.877850     0.308163        |
 |             7        -0.490928    0.000000    0.768119     0.306941        |
 |             8         0.490928    0.000000   -0.768119     0.306941        |
 +----------------------------------------------------------------------------+
 |                           b_k Directions (Ang^-1)                          |
 |                           -----------------------                          |
 |            No.           x           y           z                         |
 |            ---        --------------------------------                     |
 |             1         0.000000    0.159433    0.000000                     |
 |             2         0.245464    0.000000    0.109731                     |
 |             3        -0.245464    0.000000    0.877850                     |
 |             4        -0.490928    0.000000    0.768119                     |
 +----------------------------------------------------------------------------+
  
 Time to write kmesh            0.122 (sec)

 Finished setting up k-point neighbours.

 Exiting wannier_setup in wannier90 08:51:35 
