       N       E                     dE             d eps       ncg     rms          rms(c)
RMM:   1     0.217070119373E+04    0.21707E+04   -0.67469E+04  2432   0.908E+02
RMM:   2     0.441815057936E+03   -0.17289E+04   -0.18375E+04  2432   0.234E+02
RMM:   3    -0.145939311910E+03   -0.58775E+03   -0.57593E+03  2432   0.140E+02
RMM:   4    -0.349844066205E+03   -0.20390E+03   -0.16365E+03  2432   0.896E+01
RMM:   5    -0.404593088234E+03   -0.54749E+02   -0.47258E+02  2432   0.487E+01
RMM:   6    -0.422581911980E+03   -0.17989E+02   -0.15435E+02  2432   0.287E+01
RMM:   7    -0.428603911761E+03   -0.60220E+01   -0.55318E+01  2432   0.167E+01
RMM:   8    -0.430917895049E+03   -0.23140E+01   -0.21126E+01  2432   0.104E+01
RMM:   9    -0.432336178260E+03   -0.14183E+01   -0.13729E+01  6616   0.631E+00
RMM:  10    -0.432463924249E+03   -0.12775E+00   -0.10458E+00  7373   0.171E+00
RMM:  11    -0.432466884529E+03   -0.29603E-02   -0.27155E-02  6701   0.265E-01
RMM:  12    -0.432467321218E+03   -0.43669E-03   -0.41057E-03  5500   0.826E-02    0.436E+01
RMM:  13    -0.306543057658E+03    0.12592E+03   -0.20196E+02  5196   0.276E+01    0.280E+01
RMM:  14    -0.295187496717E+03    0.11356E+02   -0.17787E+01  5716   0.980E+00    0.259E+01
RMM:  15    -0.322452545244E+03   -0.27265E+02   -0.84426E+00  5987   0.581E+00    0.391E+01
RMM:  16    -0.267146997540E+03    0.55306E+02   -0.11650E+01  5635   0.730E+00    0.199E+01
RMM:  17    -0.267644549640E+03   -0.49755E+00   -0.23742E+00  5750   0.385E+00    0.168E+01
RMM:  18    -0.276363700870E+03   -0.87192E+01   -0.16219E+00  5632   0.283E+00    0.174E+01
RMM:  19    -0.278120659522E+03   -0.17570E+01   -0.36596E-01  5750   0.157E+00    0.149E+01
RMM:  20    -0.326482656316E+03   -0.48362E+02   -0.18020E+01  5369   0.962E+00    0.145E+01
RMM:  21    -0.366626630113E+03   -0.40144E+02   -0.20990E+01  5393   0.105E+01    0.193E+01
RMM:  22    -0.374830701623E+03   -0.82041E+01   -0.31535E+00  5788   0.412E+00    0.174E+01
RMM:  23    -0.402625668075E+03   -0.27795E+02   -0.52912E+01  5195   0.108E+01    0.993E+00
RMM:  24    -0.413408281130E+03   -0.10783E+02   -0.11906E+01  5256   0.524E+00    0.622E+00
RMM:  25    -0.417192892015E+03   -0.37846E+01   -0.25052E+00  5672   0.274E+00    0.481E+00
RMM:  26    -0.420169331869E+03   -0.29764E+01   -0.19977E+00  5699   0.260E+00    0.312E+00
RMM:  27    -0.422460752027E+03   -0.22914E+01   -0.14944E+00  5635   0.221E+00    0.208E+00
RMM:  28    -0.423016536226E+03   -0.55578E+00   -0.29924E-01  5806   0.102E+00    0.177E+00
RMM:  29    -0.423254904419E+03   -0.23837E+00   -0.10357E-01  5638   0.684E-01    0.112E+00
RMM:  30    -0.423456465672E+03   -0.20156E+00   -0.34409E-02  5596   0.352E-01    0.906E-01
RMM:  31    -0.423501519222E+03   -0.45054E-01   -0.98311E-03  5724   0.207E-01    0.610E-01
RMM:  32    -0.423558428697E+03   -0.56909E-01   -0.66909E-03  5560   0.163E-01    0.418E-01
RMM:  33    -0.423570447375E+03   -0.12019E-01   -0.28890E-03  5505   0.104E-01    0.289E-01
RMM:  34    -0.423574758577E+03   -0.43112E-02   -0.14467E-03  5475   0.725E-02    0.166E-01
RMM:  35    -0.423578367635E+03   -0.36091E-02   -0.61806E-04  4705   0.462E-02    0.107E-01
RMM:  36    -0.423580488624E+03   -0.21210E-02   -0.34498E-04  4418   0.350E-02    0.640E-02
RMM:  37    -0.423580787770E+03   -0.29915E-03   -0.10538E-04  3920   0.230E-02    0.569E-02
RMM:  38    -0.423580928092E+03   -0.14032E-03   -0.81863E-05  3751   0.210E-02    0.567E-02
RMM:  39    -0.423580977801E+03   -0.49708E-04   -0.54799E-05  3549   0.190E-02
   1 F= -.42960752E+03 E0= -.42960209E+03  d E =-.108604E-01  mag=     2.4416
       N       E                     dE             d eps       ncg     rms          rms(c)
RMM:   1    -0.423581027629E+03   -0.99537E-04   -0.77819E-05  3651   0.219E-02    0.555E-02
RMM:   2    -0.423581065890E+03   -0.38261E-04   -0.12998E-04  3833   0.239E-02
   2 F= -.42960761E+03 E0= -.42960208E+03  d E =-.110642E-01  mag=     2.4404
       N       E                     dE             d eps       ncg     rms          rms(c)
RMM:   1    -0.423580882141E+03    0.14549E-03   -0.38805E-05  3624   0.134E-02    0.400E-02
RMM:   2    -0.423580164275E+03    0.71787E-03   -0.50957E-05  3586   0.145E-02    0.453E-02
RMM:   3    -0.423580329696E+03   -0.16542E-03   -0.52150E-06  2753   0.629E-03    0.477E-02
RMM:   4    -0.423579885305E+03    0.44439E-03   -0.62896E-06  2654   0.622E-03    0.480E-02
RMM:   5    -0.423579323792E+03    0.56151E-03   -0.71994E-06  2982   0.663E-03    0.472E-02
RMM:   6    -0.423577895479E+03    0.14283E-02   -0.20315E-05  3422   0.115E-02    0.472E-02
RMM:   7    -0.423577641897E+03    0.25358E-03   -0.25961E-06  2404   0.526E-03    0.473E-02
RMM:   8    -0.423577698637E+03   -0.56740E-04   -0.62534E-07  1639   0.387E-03
   3 F= -.42960424E+03 E0= -.42959889E+03  d E =-.107005E-01  mag=     2.3923
