 vasp.5.4.4.18Apr17-6-g9f103f2a35 (build Oct 03 2018 13:58:34) complex          
  
 executed on             LinuxIFC date 2022.02.07  15:58:44
 running on   40 total cores
 distrk:  each k-point on   40 cores,    1 groups
 distr:  one band on NCORES_PER_BAND=  10 cores,    4 groups


--------------------------------------------------------------------------------------------------------


 INCAR:
 POTCAR:    PAW_PBE C 08Apr2002                   
 POTCAR:    PAW_PBE O 08Apr2002                   
 POTCAR:    PAW_PBE C 08Apr2002                   
   VRHFIN =C: s2p2                                                              
   LEXCH  = PE                                                                  
   EATOM  =   147.1560 eV,   10.8157 Ry                                         
                                                                                
   TITEL  = PAW_PBE C 08Apr2002                                                 
   LULTRA =        F    use ultrasoft PP ?                                      
   IUNSCR =        1    unscreen: 0-lin 1-nonlin 2-no                           
   RPACOR =    1.200    partial core radius                                     
   POMASS =   12.011; ZVAL   =    4.000    mass and valenz                      
   RCORE  =    1.500    outmost cutoff radius                                   
   RWIGS  =    1.630; RWIGS  =    0.863    wigner-seitz radius (au A)           
   ENMAX  =  400.000; ENMIN  =  300.000 eV                                      
   ICORE  =        2    local potential                                         
   LCOR   =        T    correct aug charges                                     
   LPAW   =        T    paw PP                                                  
   EAUG   =  644.873                                                            
   DEXC   =    0.000                                                            
   RMAX   =    1.529    core radius for proj-oper                               
   RAUG   =    1.300    factor for augmentation sphere                          
   RDEP   =    1.501    radius for radial grids                                 
   RDEPT  =    1.300    core radius for aug-charge                              
                                                                                
   Atomic configuration                                                         
    4 entries                                                                   
     n  l   j            E        occ.                                          
     1  0  0.50      -273.3789   2.0000                                         
     2  0  0.50       -13.7508   2.0000                                         
     2  1  0.50        -5.2854   2.0000                                         
     3  2  1.50        -5.4423   0.0000                                         
   Description                                                                  
     l       E           TYP  RCUT    TYP  RCUT                                 
     0    -13.7508458     23  1.200                                             
     0     -8.2022199     23  1.200                                             
     1     -5.2854383     23  1.500                                             
     1     34.0145650     23  1.500                                             
     2     -5.4423304      7  1.500                                             
  local pseudopotential read in
  partial core-charges read in
  partial kinetic energy density read in
  atomic valenz-charges read in
  non local Contribution for L=           0  read in
    real space projection operators read in
  non local Contribution for L=           0  read in
    real space projection operators read in
  non local Contribution for L=           1  read in
    real space projection operators read in
  non local Contribution for L=           1  read in
    real space projection operators read in
    PAW grid and wavefunctions read in
 
   number of l-projection  operators is LMAX  =           4
   number of lm-projection operators is LMMAX =           8
 
 POTCAR:    PAW_PBE O 08Apr2002                   
   VRHFIN =O: s2p4                                                              
   LEXCH  = PE                                                                  
   EATOM  =   432.3788 eV,   31.7789 Ry                                         
                                                                                
   TITEL  = PAW_PBE O 08Apr2002                                                 
   LULTRA =        F    use ultrasoft PP ?                                      
   IUNSCR =        1    unscreen: 0-lin 1-nonlin 2-no                           
   RPACOR =    1.200    partial core radius                                     
   POMASS =   16.000; ZVAL   =    6.000    mass and valenz                      
   RCORE  =    1.520    outmost cutoff radius                                   
   RWIGS  =    1.550; RWIGS  =    0.820    wigner-seitz radius (au A)           
   ENMAX  =  400.000; ENMIN  =  300.000 eV                                      
   ICORE  =        2    local potential                                         
   LCOR   =        T    correct aug charges                                     
   LPAW   =        T    paw PP                                                  
   EAUG   =  605.392                                                            
   DEXC   =    0.000                                                            
   RMAX   =    1.553    core radius for proj-oper                               
   RAUG   =    1.300    factor for augmentation sphere                          
   RDEP   =    1.550    radius for radial grids                                 
   RDEPT  =    1.329    core radius for aug-charge                              
                                                                                
   Atomic configuration                                                         
    4 entries                                                                   
     n  l   j            E        occ.                                          
     1  0  0.50      -514.6923   2.0000                                         
     2  0  0.50       -23.9615   2.0000                                         
     2  1  0.50        -9.0305   4.0000                                         
     3  2  1.50        -9.5241   0.0000                                         
   Description                                                                  
     l       E           TYP  RCUT    TYP  RCUT                                 
     0    -23.9615318     23  1.200                                             
     0     -9.5240782     23  1.200                                             
     1     -9.0304911     23  1.520                                             
     1      8.1634956     23  1.520                                             
     2     -9.5240782      7  1.500                                             
  local pseudopotential read in
  partial core-charges read in
  partial kinetic energy density read in
  kinetic energy density of atom read in
  atomic valenz-charges read in
  non local Contribution for L=           0  read in
    real space projection operators read in
  non local Contribution for L=           0  read in
    real space projection operators read in
  non local Contribution for L=           1  read in
    real space projection operators read in
  non local Contribution for L=           1  read in
    real space projection operators read in
    PAW grid and wavefunctions read in
 
   number of l-projection  operators is LMAX  =           4
   number of lm-projection operators is LMMAX =           8
 
 Optimization of the real space projectors (new method)

 maximal supplied QI-value         = 25.13
 optimisation between [QCUT,QGAM] = [ 10.81, 21.61] = [ 32.71,130.83] Ry 
 Optimized for a Real-space Cutoff    1.23 Angstroem

   l    n(q)    QCUT    max X(q) W(low)/X(q) W(high)/X(q)  e(spline) 
   0      8    10.807   115.676    0.36E-03    0.72E-03    0.24E-06
   0      8    10.807    87.132    0.35E-03    0.71E-03    0.24E-06
   1      7    10.807     4.429    0.19E-03    0.39E-03    0.11E-06
   1      7    10.807     2.733    0.14E-03    0.28E-03    0.13E-06
 Optimization of the real space projectors (new method)

 maximal supplied QI-value         = 24.76
 optimisation between [QCUT,QGAM] = [ 10.64, 21.54] = [ 31.73,129.89] Ry 
 Optimized for a Real-space Cutoff    1.23 Angstroem

   l    n(q)    QCUT    max X(q) W(low)/X(q) W(high)/X(q)  e(spline) 
   0      8    10.645    20.381    0.38E-03    0.60E-03    0.15E-06
   0      8    10.645    15.268    0.40E-03    0.65E-03    0.17E-06
   1      7    10.645     5.964    0.30E-03    0.63E-03    0.18E-06
   1      7    10.645     5.382    0.24E-03    0.53E-03    0.16E-06
  PAW_PBE C 08Apr2002                   :
 energy of atom  1       EATOM= -147.1560
 kinetic energy error for atom=    0.0116 (will be added to EATOM!!)
  PAW_PBE O 08Apr2002                   :
 energy of atom  2       EATOM= -432.3788
 kinetic energy error for atom=    0.0389 (will be added to EATOM!!)
 
 
 POSCAR: # Bulk supercell                        
  positions in direct lattice
  velocities in cartesian coordinates
 exchange correlation table for  LEXCH =        8
   RHO(1)=    0.500       N(1)  =     2000
   RHO(2)=  100.500       N(2)  =     4000
 


--------------------------------------------------------------------------------------------------------


 ion  position               nearest neighbor table
   1  1.000  0.000  0.000-   4 1.42  44 1.42   2 1.42
   2  0.333  0.000  0.000-   3 1.42  43 1.42   1 1.42
   3  0.500  0.031  0.000-   2 1.42   6 1.42   4 1.42
   4  0.833  0.031  0.000-   1 1.42   5 1.42   3 1.42
   5  1.000  0.062  0.000-   6 1.42   4 1.42   8 1.42
   6  0.333  0.062  0.000-   5 1.42   3 1.42   7 1.42
   7  0.500  0.094  0.000-  10 1.42   6 1.42   8 1.42
   8  0.833  0.094  0.000-   9 1.42   5 1.42   7 1.42
   9  1.000  0.125  0.000-   8 1.42  12 1.42  10 1.42
  10  0.333  0.125  0.000-   7 1.42  11 1.42   9 1.42
  11  0.500  0.156  0.000-  12 1.42  14 1.42  10 1.42
  12  0.833  0.156  0.000-  11 1.42  13 1.42   9 1.42
  13  1.000  0.187  0.000-  16 1.42  12 1.42  14 1.42
  14  0.333  0.187  0.000-  15 1.42  11 1.42  13 1.42
  15  0.500  0.219  0.000-  14 1.42  18 1.42  16 1.42
  16  0.833  0.219  0.000-  13 1.42  17 1.42  15 1.42
  17  1.000  0.250  0.000-  20 1.42  16 1.42  18 1.42
  18  0.333  0.250  0.000-  19 1.42  15 1.42  17 1.42
  19  0.499  0.281  0.000-  22 1.42  18 1.42  20 1.43
  20  0.834  0.281  0.000-  21 1.42  17 1.42  19 1.43
  21  0.002  0.312  0.000-  22 1.40  20 1.42  24 1.42
  22  0.331  0.312  0.000-  21 1.40  19 1.42  23 1.42
  23  0.500  0.343  0.000-  46 1.28  24 1.42  22 1.42
  24  0.833  0.343  0.000-  45 1.28  23 1.42  21 1.42
  25  0.000  0.688  0.000-  48 1.28  26 1.42  28 1.42
  26  0.333  0.688  0.000-  47 1.28  25 1.42  27 1.42
  27  0.502  0.719  0.000-  28 1.40  30 1.42  26 1.42
  28  0.831  0.719  0.000-  27 1.40  29 1.42  25 1.42
  29  0.999  0.750  0.000-  28 1.42  32 1.42  30 1.43
  30  0.334  0.750  0.000-  27 1.42  31 1.42  29 1.43
  31  0.500  0.781  0.000-  30 1.42  34 1.42  32 1.42
  32  0.833  0.781  0.000-  29 1.42  33 1.42  31 1.42
  33  1.000  0.813  0.000-  36 1.42  32 1.42  34 1.42
  34  0.333  0.813  0.000-  35 1.42  31 1.42  33 1.42
  35  0.500  0.844  0.000-  34 1.42  38 1.42  36 1.42
  36  0.833  0.844  0.000-  33 1.42  37 1.42  35 1.42
  37  1.000  0.875  0.000-  38 1.42  36 1.42  40 1.42
  38  0.333  0.875  0.000-  37 1.42  35 1.42  39 1.42
  39  0.500  0.906  0.000-  42 1.42  38 1.42  40 1.42
  40  0.833  0.906  0.000-  41 1.42  37 1.42  39 1.42
  41  1.000  0.938  0.000-  40 1.42  44 1.42  42 1.42
  42  0.333  0.938  0.000-  39 1.42  43 1.42  41 1.42
  43  0.500  0.969  0.000-  44 1.42   2 1.42  42 1.42
  44  0.833  0.969  0.000-  43 1.42   1 1.42  41 1.42
  45  0.929  0.374  0.000-  24 1.28
  46  0.404  0.374  0.000-  23 1.28
  47  0.429  0.657  0.000-  26 1.28
  48  0.904  0.657  0.000-  25 1.28
 
  LATTYP: Found a simple monoclinic cell.
 ALAT       =     4.2671420396
 B/A-ratio  =     9.2355726048
 C/A-ratio  =     1.5277654391
 COS(beta)  =    -0.8729266537
  
  Lattice vectors:
  
 A1 = (  -2.8441353514,   0.0000000000,  -3.1810996981)
 A2 = (   0.0000000000, -39.4095001221,   0.0000000000)
 A3 = (   1.4220706372,   0.0000000000,   6.3621993962)


Analysis of symmetry for initial positions (statically):
=====================================================================
 Subroutine PRICEL returns:
 Original cell was already a primitive cell.
 

 Routine SETGRP: Setting up the symmetry group for a 
 simple monoclinic supercell.


 Subroutine GETGRP returns: Found  2 space group operations
 (whereof  1 operations were pure point group operations)
 out of a pool of  4 trial point group operations.


The static configuration has the point symmetry C_1 .
 The point group associated with its full space group is C_1h.


Analysis of symmetry for dynamics (positions and initial velocities):
=====================================================================
 Subroutine PRICEL returns:
 Original cell was already a primitive cell.
 

 Routine SETGRP: Setting up the symmetry group for a 
 simple monoclinic supercell.


 Subroutine GETGRP returns: Found  2 space group operations
 (whereof  1 operations were pure point group operations)
 out of a pool of  4 trial point group operations.


The dynamic configuration has the point symmetry C_1 .
 The point group associated with its full space group is C_1h.


Analysis of constrained symmetry for selective dynamics:
=====================================================================
 Subroutine PRICEL returns:
 Original cell was already a primitive cell.
 

 Routine SETGRP: Setting up the symmetry group for a 
 simple monoclinic supercell.


 Subroutine GETGRP returns: Found  2 space group operations
 (whereof  1 operations were pure point group operations)
 out of a pool of  4 trial point group operations.


The constrained configuration has the point symmetry C_1 .
 The point group associated with its full space group is C_1h.


Analysis of structural, dynamic, and magnetic symmetry:
=====================================================================
 Subroutine PRICEL returns:
 Original cell was already a primitive cell.
 

 Routine SETGRP: Setting up the symmetry group for a 
 simple monoclinic supercell.


 Subroutine GETGRP returns: Found  2 space group operations
 (whereof  1 operations were pure point group operations)
 out of a pool of  4 trial point group operations.


The magnetic configuration has the point symmetry C_1 .
 The point group associated with its full space group is C_1h.


 Subroutine INISYM returns: Found  2 space group operations
 (whereof  1 operations are pure point group operations),
 and found     1 'primitive' translations

 
 
 KPOINTS: KPT-Resolved Value to Generate K-Mesh: 0

Automatic generation of k-mesh.
Space group operators:
 irot       det(A)        alpha          n_x          n_y          n_z        tau_x        tau_y        tau_z
    1     1.000000     0.000001     1.000000     0.000000     0.000000     0.000000     0.000000     0.000000
    2    -1.000000   180.000000     0.000000     1.000000     0.000000     0.500000    -0.968769     1.000000
 
 Subroutine IBZKPT returns following result:
 ===========================================
 
 Found      8 irreducible k-points:
 
 Following reciprocal coordinates:
            Coordinates               Weight
  0.000000  0.000000  0.000000      1.000000
  0.166667  0.000000  0.000000      2.000000
  0.333333  0.000000  0.000000      2.000000
  0.500000  0.000000  0.000000      1.000000
  0.000000  0.000000  0.500000      1.000000
  0.166667  0.000000  0.500000      2.000000
  0.333333  0.000000  0.500000      2.000000
  0.500000  0.000000  0.500000      1.000000
 
 Following cartesian coordinates:
            Coordinates               Weight
  0.000000  0.000000  0.000000      1.000000
  0.039067  0.000000  0.017464      2.000000
  0.078134  0.000000  0.034928      2.000000
  0.117200  0.000000  0.052393      1.000000
  0.000000  0.000000  0.157178      1.000000
  0.039067  0.000000  0.174643      2.000000
  0.078134  0.000000  0.192107      2.000000
  0.117200  0.000000  0.209571      1.000000
 


--------------------------------------------------------------------------------------------------------




 Dimension of arrays:
   k-points           NKPTS =      8   k-points in BZ     NKDIM =      8   number of bands    NBANDS=    152
   number of dos      NEDOS =    301   number of ions     NIONS =     48
   non local maximal  LDIM  =      4   non local SUM 2l+1 LMDIM =      8
   total plane-waves  NPLWV =  90720
   max r-space proj   IRMAX =   1362   max aug-charges    IRDMAX=   2400
   dimension x,y,z NGX =    24 NGY =  210 NGZ =   18
   dimension x,y,z NGXF=    48 NGYF=  420 NGZF=   36
   support grid    NGXF=    48 NGYF=  420 NGZF=   36
   ions per type =              44   4
   NGX,Y,Z   is equivalent  to a cutoff of   9.35,  8.86,  8.59 a.u.
   NGXF,Y,Z  is equivalent  to a cutoff of  18.70, 17.72, 17.18 a.u.

 SYSTEM =  metal                                   
 POSCAR =  # Bulk supercell                        

 Startparameter for this run:
   NWRITE =      2    write-flag & timer
   PREC   = normal    normal or accurate (medium, high low for compatibility)
   ISTART =      0    job   : 0-new  1-cont  2-samecut
   ICHARG =      2    charge: 1-file 2-atom 10-const
   ISPIN  =      2    spin polarized calculation?
   LNONCOLLINEAR =      F non collinear calculations
   LSORBIT =      F    spin-orbit coupling
   INIWAV =      1    electr: 0-lowe 1-rand  2-diag
   LASPH  =      F    aspherical Exc in radial PAW
   METAGGA=      F    non-selfconsistent MetaGGA calc.

 Electronic Relaxation 1
   ENCUT  =  450.0 eV  33.07 Ry    5.75 a.u.   7.38 68.17  6.03*2*pi/ulx,y,z
   ENINI  =  450.0     initial cutoff
   ENAUG  =  644.9 eV  augmentation charge cutoff
   NELM   =    120;   NELMIN=  2; NELMDL=-12     # of ELM steps 
   EDIFF  = 0.1E-03   stopping-criterion for ELM
   LREAL  =      T    real-space projection
   NLSPLINE    = F    spline interpolate recip. space projectors
   LCOMPAT=      F    compatible to vasp.4.4
   GGA_COMPAT  = T    GGA compatible to vasp.4.4-vasp.4.6
   LMAXPAW     = -100 max onsite density
   LMAXMIX     =    2 max onsite mixed and CHGCAR
   VOSKOWN=      0    Vosko Wilk Nusair interpolation
   ROPT   =   -0.00050  -0.00050
 Ionic relaxation
   EDIFFG = -.1E-01   stopping-criterion for IOM
   NSW    =      3    number of steps for IOM
   NBLOCK =      1;   KBLOCK =      3    inner block; outer block 
   IBRION =     -1    ionic relax: 0-MD 1-quasi-New 2-CG
   NFREE  =      0    steps in history (QN), initial steepest desc. (CG)
   ISIF   =      0    stress and relaxation
   IWAVPR =     10    prediction:  0-non 1-charg 2-wave 3-comb
   ISYM   =      2    0-nonsym 1-usesym 2-fastsym
   LCORR  =      T    Harris-Foulkes like correction to forces

   POTIM  = 0.5000    time-step for ionic-motion
   TEIN   =    0.0    initial temperature
   TEBEG  =    0.0;   TEEND  =   0.0 temperature during run
   SMASS  =  -3.00    Nose mass-parameter (am)
   estimated Nose-frequenzy (Omega)   =  0.10E-29 period in steps =****** mass=  -0.416E-27a.u.
   SCALEE = 1.0000    scale energy and forces
   NPACO  =    256;   APACO  = 16.0  distance and # of slots for P.C.
   PSTRESS=    0.0 pullay stress

  Mass of Ions in am
   POMASS =  12.01 16.00
  Ionic Valenz
   ZVAL   =   4.00  6.00
  Atomic Wigner-Seitz radii
   RWIGS  =  -1.00 -1.00
  virtual crystal weights 
   VCA    =   1.00  1.00
   NELECT =     200.0000    total number of electrons
   NUPDOWN=      -1.0000    fix difference up-down

 DOS related values:
   EMIN   =  10.00;   EMAX   =-10.00  energy-range for DOS
   EFERMI =   0.00
   ISMEAR =     0;   SIGMA  =   0.05  broadening in eV -4-tet -1-fermi 0-gaus

 Electronic relaxation 2 (details)
   IALGO  =     48    algorithm
   LDIAG  =      T    sub-space diagonalisation (order eigenvalues)
   LSUBROT=      F    optimize rotation matrix (better conditioning)
   TURBO    =      0    0=normal 1=particle mesh
   IRESTART =      0    0=no restart 2=restart with 2 vectors
   NREBOOT  =      0    no. of reboots
   NMIN     =      0    reboot dimension
   EREF     =   0.00    reference energy to select bands
   IMIX   =      4    mixing-type and parameters
     AMIX     =   0.40;   BMIX     =  1.00
     AMIX_MAG =   1.60;   BMIX_MAG =  1.00
     AMIN     =   0.10
     WC   =   100.;   INIMIX=   1;  MIXPRE=   1;  MAXMIX= -45

 Intra band minimization:
   WEIMIN = 0.0000     energy-eigenvalue tresh-hold
   EBREAK =  0.16E-06  absolut break condition
   DEPER  =   0.30     relativ break condition  

   TIME   =   0.40     timestep for ELM

  volume/ion in A,a.u.               =      11.14        75.19
  Fermi-wavevector in a.u.,A,eV,Ry     =   1.179447  2.228831 18.926993  1.391095
  Thomas-Fermi vector in A             =   2.315757
 
 Write flags
   LWAVE        =      F    write WAVECAR
   LDOWNSAMPLE  =      F    k-point downsampling of WAVECAR
   LCHARG       =      T    write CHGCAR
   LVTOT        =      F    write LOCPOT, total local potential
   LVHAR        =      F    write LOCPOT, Hartree potential only
   LELF         =      F    write electronic localiz. function (ELF)
   LORBIT       =      0    0 simple, 1 ext, 2 COOP (PROOUT), +10 PAW based schemes


 Dipole corrections
   LMONO  =      F    monopole corrections only (constant potential shift)
   LDIPOL =      F    correct potential (dipole corrections)
   IDIPOL =      0    1-x, 2-y, 3-z, 4-all directions 
   EPSILON=  1.0000000 bulk dielectric constant

 Exchange correlation treatment:
   GGA     =    --    GGA type
   LEXCH   =     8    internal setting for exchange type
   VOSKOWN=      0    Vosko Wilk Nusair interpolation
   LHFCALC =     F    Hartree Fock is set to
   LHFONE  =     F    Hartree Fock one center treatment
   AEXX    =    0.0000 exact exchange contribution

 Linear response parameters
   LEPSILON=     F    determine dielectric tensor
   LRPA    =     F    only Hartree local field effects (RPA)
   LNABLA  =     F    use nabla operator in PAW spheres
   LVEL    =     F    velocity operator in full k-point grid
   LINTERFAST=   F  fast interpolation
   KINTER  =     0    interpolate to denser k-point grid
   CSHIFT  =0.1000    complex shift for real part using Kramers Kronig
   OMEGAMAX=  -1.0    maximum frequency
   DEG_THRESHOLD= 0.2000000E-02 threshold for treating states as degnerate
   RTIME   =   -0.100 relaxation time in fs
  (WPLASMAI=    0.000 imaginary part of plasma frequency in eV, 0.658/RTIME)
   DFIELD  = 0.0000000 0.0000000 0.0000000 field for delta impulse in time
 
 Orbital magnetization related:
   ORBITALMAG=     F  switch on orbital magnetization
   LCHIMAG   =     F  perturbation theory with respect to B field
   DQ        =  0.001000  dq finite difference perturbation B field
   LLRAUG    =     F  two centre corrections for induced B field



--------------------------------------------------------------------------------------------------------


 Static calculation
 charge density and potential will be updated during run
 spin polarized calculation
 RMM-DIIS sequential band-by-band
 perform sub-space diagonalisation
    before iterative eigenvector-optimisation
 modified Broyden-mixing scheme, WC =      100.0
 initial mixing is a Kerker type mixing with AMIX =  0.4000 and BMIX =      1.0000
 Hartree-type preconditioning will be used
 using additional bands           52
 real space projection scheme for non local part
 use partial core corrections
 calculate Harris-corrections to forces 
   (improved forces if not selfconsistent)
 use gradient corrections 
 use of overlap-Matrix (Vanderbilt PP)
 Gauss-broadening in eV      SIGMA  =   0.05


--------------------------------------------------------------------------------------------------------


  energy-cutoff  :      450.00
  volume of cell :      534.83
      direct lattice vectors                 reciprocal lattice vectors
     4.266200066  0.000000000  0.000000000     0.234400634  0.000000000  0.104785421
     0.000000000 39.409500122  0.000000000     0.000000000  0.025374592  0.000000000
    -1.422064714  0.000000000  3.181099698     0.000000000  0.000000000  0.314356699

  length of vectors
     4.266200066 39.409500122  3.484488964     0.256755996  0.025374592  0.314356699


 
 k-points in units of 2pi/SCALE and weight: KPT-Resolved Value to Generate K-Mesh: 0
   0.00000000  0.00000000  0.00000000       0.083
   0.03906677  0.00000000  0.01746424       0.167
   0.07813354  0.00000000  0.03492847       0.167
   0.11720032  0.00000000  0.05239271       0.083
   0.00000000  0.00000000  0.15717835       0.083
   0.03906677  0.00000000  0.17464259       0.167
   0.07813354  0.00000000  0.19210682       0.167
   0.11720032  0.00000000  0.20957106       0.083
 
 k-points in reciprocal lattice and weights: KPT-Resolved Value to Generate K-Mesh: 0
   0.00000000  0.00000000  0.00000000       0.083
   0.16666667  0.00000000  0.00000000       0.167
   0.33333333  0.00000000  0.00000000       0.167
   0.50000000  0.00000000  0.00000000       0.083
   0.00000000  0.00000000  0.50000000       0.083
   0.16666667  0.00000000  0.50000000       0.167
   0.33333333  0.00000000  0.50000000       0.167
   0.50000000  0.00000000  0.50000000       0.083
 
 position of ions in fractional coordinates (direct lattice) 
   0.99972635  0.00000783  0.00000000
   0.33324726  0.00000789  0.00000000
   0.49972635  0.03122317  0.00000000
   0.83324726  0.03122310  0.00000000
   0.99989858  0.06246133  0.00000000
   0.33301183  0.06245907  0.00000000
   0.49966823  0.09369861  0.00000000
   0.83324927  0.09370033  0.00000000
   0.99972692  0.12492436  0.00000000
   0.33326526  0.12492629  0.00000000
   0.49993855  0.15617451  0.00000000
   0.83312972  0.15617360  0.00000000
   0.99968157  0.18741802  0.00000000
   0.33345729  0.18742148  0.00000000
   0.49976508  0.21863473  0.00000000
   0.83340337  0.21863213  0.00000000
   0.99982960  0.24990082  0.00000000
   0.33333668  0.24990181  0.00000000
   0.49924169  0.28117075  0.00000000
   0.83390417  0.28116934  0.00000000
   0.00216473  0.31214964  0.00000000
   0.33091401  0.31214843  0.00000000
   0.50011866  0.34329153  0.00000000
   0.83287698  0.34329222  0.00000000
   0.00011866  0.68793945  0.00000000
   0.33287698  0.68793876  0.00000000
   0.50216473  0.71908037  0.00000000
   0.83091401  0.71908157  0.00000000
   0.99924169  0.75005929  0.00000000
   0.33390417  0.75006070  0.00000000
   0.49982960  0.78133017  0.00000000
   0.83333668  0.78132918  0.00000000
   0.99976508  0.81259525  0.00000000
   0.33340337  0.81259786  0.00000000
   0.49968157  0.84381198  0.00000000
   0.83345729  0.84380853  0.00000000
   0.99993855  0.87505551  0.00000000
   0.33312972  0.87505641  0.00000000
   0.49972692  0.90630566  0.00000000
   0.83326526  0.90630372  0.00000000
   0.99966823  0.93753236  0.00000000
   0.33324927  0.93753065  0.00000000
   0.49989858  0.96876969  0.00000000
   0.83301183  0.96877194  0.00000000
   0.92883304  0.37417703  0.00000000
   0.40408709  0.37417364  0.00000000
   0.42883310  0.65705395  0.00000000
   0.90408811  0.65705735  0.00000000
 
 position of ions in cartesian coordinates  (Angst):
   4.26503263  0.00030848  0.00000000
   1.42169948  0.00031111  0.00000000
   2.13193260  1.23048958  0.00000000
   3.55479951  1.23048695  0.00000000
   4.26576740  2.46156976  0.00000000
   1.42069508  2.46148088  0.00000000
   2.13168463  3.69261553  0.00000000
   3.55480809  3.69268326  0.00000000
   4.26503507  4.92320651  0.00000000
   1.42177628  4.92328284  0.00000000
   2.13283788  6.15475946  0.00000000
   3.55429807  6.15472366  0.00000000
   4.26484158  7.38605046  0.00000000
   1.42259550  7.38618671  0.00000000
   2.13209783  8.61628554  0.00000000
   3.55546553  8.61618281  0.00000000
   4.26547312  9.84846638  0.00000000
   1.42208095  9.84850538  0.00000000
   2.12986493 11.08079856  0.00000000
   3.55760202 11.08074295  0.00000000
   0.00923518 12.30166110  0.00000000
   1.41174537 12.30161368  0.00000000
   2.13360627 13.52894768  0.00000000
   3.55321984 13.52897492  0.00000000
   0.00050624 27.11134999  0.00000000
   1.42011981 27.11132275  0.00000000
   2.14233521 28.33859783  0.00000000
   3.54484540 28.33864525  0.00000000
   4.26296496 29.55946155  0.00000000
   1.42450198 29.55951716  0.00000000
   2.13237308 30.79183129  0.00000000
   3.55518098 30.79179229  0.00000000
   4.26519787 32.02397279  0.00000000
   1.42236549 32.02407553  0.00000000
   2.13174155 33.25420843  0.00000000
   3.55569553 33.25407218  0.00000000
   4.26593791 34.48550006  0.00000000
   1.42119804 34.48553586  0.00000000
   2.13193503 35.71705297  0.00000000
   3.55487632 35.71697665  0.00000000
   4.26478467 36.94768182  0.00000000
   1.42170806 36.94761409  0.00000000
   2.13266737 38.17872909  0.00000000
   3.55379512 38.17881797  0.00000000
   3.96258756 14.74612989  0.00000000
   1.72391639 14.74599599  0.00000000
   1.82948778 25.89416778  0.00000000
   3.85702074 25.89430168  0.00000000
 


--------------------------------------------------------------------------------------------------------


 k-point  1 :   0.0000 0.0000 0.0000  plane waves:   11583
 k-point  2 :   0.1667 0.0000 0.0000  plane waves:   11555
 k-point  3 :   0.3333 0.0000 0.0000  plane waves:   11508
 k-point  4 :   0.5000 0.0000 0.0000  plane waves:   11488
 k-point  5 :   0.0000 0.0000 0.5000  plane waves:   11620
 k-point  6 :   0.1667 0.0000 0.5000  plane waves:   11655
 k-point  7 :   0.3333 0.0000 0.5000  plane waves:   11649
 k-point  8 :   0.5000 0.0000 0.5000  plane waves:   11620

 maximum and minimum number of plane-waves per node :      1191     1125

 maximum number of plane-waves:     11655
 maximum index in each direction: 
   IXMAX=    7   IYMAX=   68   IZMAX=    6
   IXMIN=   -7   IYMIN=  -68   IZMIN=   -6


 real space projection operators:
  total allocation   :       3813.69 KBytes
  max/ min on nodes  :        509.81        287.25


 parallel 3D FFT for wavefunctions:
    minimum data exchange during FFTs selected (reduces bandwidth)
 parallel 3D FFT for charge:
    minimum data exchange during FFTs selected (reduces bandwidth)


 total amount of memory used by VASP MPI-rank0    48266. kBytes
=======================================================================

   base      :      30000. kBytes
   nonlr-proj:       1717. kBytes
   fftplans  :       1314. kBytes
   grid      :       3454. kBytes
   one-center:         30. kBytes
   wavefun   :      11751. kBytes
 
     INWAV:  cpu time    0.0000: real time    0.0002
 Broyden mixing: mesh for mixing (old mesh)
   NGX = 15   NGY =137   NGZ = 13
  (NGX  = 48   NGY  =420   NGZ  = 36)
  gives a total of  26715 points

 initial charge density was supplied:
 charge density of overlapping atoms calculated
 number of electron     200.0000000 magnetization      48.0000000
 keeping initial charge density in first step


--------------------------------------------------------------------------------------------------------


 Maximum index for non-local projection operator          244
 Maximum index for augmentation-charges          288 (set IRDMAX)


--------------------------------------------------------------------------------------------------------


 First call to EWALD:  gamma=   0.218
 Maximum number of real-space cells 5x 1x 6
 Maximum number of reciprocal cells 2x11x 1

    FEWALD:  cpu time    0.0024: real time    0.0024


--------------------------------------- Iteration      1(   1)  ---------------------------------------


    POTLOK:  cpu time    0.0379: real time    0.0458
    SETDIJ:  cpu time    0.0077: real time    0.0079
    EDDIAG:  cpu time    0.5229: real time    0.5318
  RMM-DIIS:  cpu time    0.6741: real time    0.6848
    ORTHCH:  cpu time    0.0849: real time    0.0852
       DOS:  cpu time    0.0017: real time    0.0019
    --------------------------------------------
      LOOP:  cpu time    1.3292: real time    1.3574

 eigenvalue-minimisations  :  2432
 total energy-change (2. order) : 0.2170701E+04  (-0.6746933E+04)
 number of electron     200.0000000 magnetization      48.0000000
 augmentation part      200.0000000 magnetization      48.0000000

 Free energy of the ion-electron system (eV)
  ---------------------------------------------------
  alpha Z        PSCENC =       372.54520999
  Ewald energy   TEWEN  =     38165.18647767
  -Hartree energ DENC   =    -46010.75833635
  -exchange      EXHF   =         0.00000000
  -V(xc)+E(xc)   XCENC  =       702.62007813
  PAW double counting   =      6154.95120234    -6186.79106147
  entropy T*S    EENTRO =        -0.00590347
  eigenvalues    EBANDS =       769.24144365
  atomic energy  EATOM  =      8203.71208324
  Solvation  Ediel_sol  =         0.00000000
  ---------------------------------------------------
  free energy    TOTEN  =      2170.70119373 eV

  energy without entropy =     2170.70709721  energy(sigma->0) =     2170.70414547


--------------------------------------------------------------------------------------------------------




--------------------------------------- Iteration      1(   2)  ---------------------------------------


    EDDIAG:  cpu time    0.5248: real time    0.5266
  RMM-DIIS:  cpu time    0.6756: real time    0.6786
    ORTHCH:  cpu time    0.0845: real time    0.0852
       DOS:  cpu time    0.0019: real time    0.0019
    --------------------------------------------
      LOOP:  cpu time    1.2869: real time    1.2923

 eigenvalue-minimisations  :  2432
 total energy-change (2. order) :-0.1728886E+04  (-0.1837466E+04)
 number of electron     200.0000000 magnetization      48.0000000
 augmentation part      200.0000000 magnetization      48.0000000

 Free energy of the ion-electron system (eV)
  ---------------------------------------------------
  alpha Z        PSCENC =       372.54520999
  Ewald energy   TEWEN  =     38165.18647767
  -Hartree energ DENC   =    -46010.75833635
  -exchange      EXHF   =         0.00000000
  -V(xc)+E(xc)   XCENC  =       702.62007813
  PAW double counting   =      6154.95120234    -6186.79106147
  entropy T*S    EENTRO =        -0.00834101
  eigenvalues    EBANDS =      -959.64225461
  atomic energy  EATOM  =      8203.71208324
  Solvation  Ediel_sol  =         0.00000000
  ---------------------------------------------------
  free energy    TOTEN  =       441.81505794 eV

  energy without entropy =      441.82339895  energy(sigma->0) =      441.81922844


--------------------------------------------------------------------------------------------------------




--------------------------------------- Iteration      1(   3)  ---------------------------------------


    EDDIAG:  cpu time    0.5095: real time    0.5115
  RMM-DIIS:  cpu time    0.6708: real time    0.6735
    ORTHCH:  cpu time    0.0841: real time    0.0843
       DOS:  cpu time    0.0017: real time    0.0017
    --------------------------------------------
      LOOP:  cpu time    1.2661: real time    1.2710

 eigenvalue-minimisations  :  2432
 total energy-change (2. order) :-0.5877544E+03  (-0.5759344E+03)
 number of electron     200.0000000 magnetization      48.0000000
 augmentation part      200.0000000 magnetization      48.0000000

 Free energy of the ion-electron system (eV)
  ---------------------------------------------------
  alpha Z        PSCENC =       372.54520999
  Ewald energy   TEWEN  =     38165.18647767
  -Hartree energ DENC   =    -46010.75833635
  -exchange      EXHF   =         0.00000000
  -V(xc)+E(xc)   XCENC  =       702.62007813
  PAW double counting   =      6154.95120234    -6186.79106147
  entropy T*S    EENTRO =        -0.00628152
  eigenvalues    EBANDS =     -1547.39868395
  atomic energy  EATOM  =      8203.71208324
  Solvation  Ediel_sol  =         0.00000000
  ---------------------------------------------------
  free energy    TOTEN  =      -145.93931191 eV

  energy without entropy =     -145.93303039  energy(sigma->0) =     -145.93617115


--------------------------------------------------------------------------------------------------------




--------------------------------------- Iteration      1(   4)  ---------------------------------------


    EDDIAG:  cpu time    0.5102: real time    0.5120
  RMM-DIIS:  cpu time    0.6832: real time    0.6856
    ORTHCH:  cpu time    0.0871: real time    0.0880
       DOS:  cpu time    0.0017: real time    0.0017
    --------------------------------------------
      LOOP:  cpu time    1.2823: real time    1.2873

 eigenvalue-minimisations  :  2432
 total energy-change (2. order) :-0.2039048E+03  (-0.1636513E+03)
 number of electron     200.0000000 magnetization      48.0000000
 augmentation part      200.0000000 magnetization      48.0000000

 Free energy of the ion-electron system (eV)
  ---------------------------------------------------
  alpha Z        PSCENC =       372.54520999
  Ewald energy   TEWEN  =     38165.18647767
  -Hartree energ DENC   =    -46010.75833635
  -exchange      EXHF   =         0.00000000
  -V(xc)+E(xc)   XCENC  =       702.62007813
  PAW double counting   =      6154.95120234    -6186.79106147
  entropy T*S    EENTRO =        -0.00219203
  eigenvalues    EBANDS =     -1751.30752773
  atomic energy  EATOM  =      8203.71208324
  Solvation  Ediel_sol  =         0.00000000
  ---------------------------------------------------
  free energy    TOTEN  =      -349.84406621 eV

  energy without entropy =     -349.84187418  energy(sigma->0) =     -349.84297019


--------------------------------------------------------------------------------------------------------




--------------------------------------- Iteration      1(   5)  ---------------------------------------


    EDDIAG:  cpu time    0.5072: real time    0.5089
  RMM-DIIS:  cpu time    0.6723: real time    0.6741
    ORTHCH:  cpu time    0.0846: real time    0.0849
       DOS:  cpu time    0.0017: real time    0.0017
    --------------------------------------------
      LOOP:  cpu time    1.2658: real time    1.2696

 eigenvalue-minimisations  :  2432
 total energy-change (2. order) :-0.5474902E+02  (-0.4725805E+02)
 number of electron     200.0000000 magnetization      48.0000000
 augmentation part      200.0000000 magnetization      48.0000000

 Free energy of the ion-electron system (eV)
  ---------------------------------------------------
  alpha Z        PSCENC =       372.54520999
  Ewald energy   TEWEN  =     38165.18647767
  -Hartree energ DENC   =    -46010.75833635
  -exchange      EXHF   =         0.00000000
  -V(xc)+E(xc)   XCENC  =       702.62007813
  PAW double counting   =      6154.95120234    -6186.79106147
  entropy T*S    EENTRO =        -0.00231533
  eigenvalues    EBANDS =     -1806.05642646
  atomic energy  EATOM  =      8203.71208324
  Solvation  Ediel_sol  =         0.00000000
  ---------------------------------------------------
  free energy    TOTEN  =      -404.59308823 eV

  energy without entropy =     -404.59077290  energy(sigma->0) =     -404.59193057


--------------------------------------------------------------------------------------------------------




--------------------------------------- Iteration      1(   6)  ---------------------------------------


    EDDIAG:  cpu time    0.5074: real time    0.5091
  RMM-DIIS:  cpu time    0.6712: real time    0.6735
    ORTHCH:  cpu time    0.0846: real time    0.0848
       DOS:  cpu time    0.0017: real time    0.0017
    --------------------------------------------
      LOOP:  cpu time    1.2649: real time    1.2691

 eigenvalue-minimisations  :  2432
 total energy-change (2. order) :-0.1798882E+02  (-0.1543546E+02)
 number of electron     200.0000000 magnetization      48.0000000
 augmentation part      200.0000000 magnetization      48.0000000

 Free energy of the ion-electron system (eV)
  ---------------------------------------------------
  alpha Z        PSCENC =       372.54520999
  Ewald energy   TEWEN  =     38165.18647767
  -Hartree energ DENC   =    -46010.75833635
  -exchange      EXHF   =         0.00000000
  -V(xc)+E(xc)   XCENC  =       702.62007813
  PAW double counting   =      6154.95120234    -6186.79106147
  entropy T*S    EENTRO =        -0.00079620
  eigenvalues    EBANDS =     -1824.04676934
  atomic energy  EATOM  =      8203.71208324
  Solvation  Ediel_sol  =         0.00000000
  ---------------------------------------------------
  free energy    TOTEN  =      -422.58191198 eV

  energy without entropy =     -422.58111578  energy(sigma->0) =     -422.58151388


--------------------------------------------------------------------------------------------------------




--------------------------------------- Iteration      1(   7)  ---------------------------------------


    EDDIAG:  cpu time    0.5233: real time    0.5260
  RMM-DIIS:  cpu time    0.6932: real time    0.6960
    ORTHCH:  cpu time    0.0853: real time    0.0855
       DOS:  cpu time    0.0019: real time    0.0019
    --------------------------------------------
      LOOP:  cpu time    1.3036: real time    1.3094

 eigenvalue-minimisations  :  2432
 total energy-change (2. order) :-0.6022000E+01  (-0.5531807E+01)
 number of electron     200.0000000 magnetization      48.0000000
 augmentation part      200.0000000 magnetization      48.0000000

 Free energy of the ion-electron system (eV)
  ---------------------------------------------------
  alpha Z        PSCENC =       372.54520999
  Ewald energy   TEWEN  =     38165.18647767
  -Hartree energ DENC   =    -46010.75833635
  -exchange      EXHF   =         0.00000000
  -V(xc)+E(xc)   XCENC  =       702.62007813
  PAW double counting   =      6154.95120234    -6186.79106147
  entropy T*S    EENTRO =        -0.00385185
  eigenvalues    EBANDS =     -1830.06571346
  atomic energy  EATOM  =      8203.71208324
  Solvation  Ediel_sol  =         0.00000000
  ---------------------------------------------------
  free energy    TOTEN  =      -428.60391176 eV

  energy without entropy =     -428.60005991  energy(sigma->0) =     -428.60198583


--------------------------------------------------------------------------------------------------------




--------------------------------------- Iteration      1(   8)  ---------------------------------------


    EDDIAG:  cpu time    0.5096: real time    0.5122
  RMM-DIIS:  cpu time    0.6858: real time    0.6920
    ORTHCH:  cpu time    0.0862: real time    0.0864
       DOS:  cpu time    0.0017: real time    0.0017
    --------------------------------------------
      LOOP:  cpu time    1.2834: real time    1.2923

 eigenvalue-minimisations  :  2432
 total energy-change (2. order) :-0.2313983E+01  (-0.2112593E+01)
 number of electron     200.0000000 magnetization      48.0000000
 augmentation part      200.0000000 magnetization      48.0000000

 Free energy of the ion-electron system (eV)
  ---------------------------------------------------
  alpha Z        PSCENC =       372.54520999
  Ewald energy   TEWEN  =     38165.18647767
  -Hartree energ DENC   =    -46010.75833635
  -exchange      EXHF   =         0.00000000
  -V(xc)+E(xc)   XCENC  =       702.62007813
  PAW double counting   =      6154.95120234    -6186.79106147
  entropy T*S    EENTRO =        -0.00277598
  eigenvalues    EBANDS =     -1832.38077262
  atomic energy  EATOM  =      8203.71208324
  Solvation  Ediel_sol  =         0.00000000
  ---------------------------------------------------
  free energy    TOTEN  =      -430.91789505 eV

  energy without entropy =     -430.91511907  energy(sigma->0) =     -430.91650706


--------------------------------------------------------------------------------------------------------




--------------------------------------- Iteration      1(   9)  ---------------------------------------


    EDDIAG:  cpu time    0.5199: real time    0.5217
  RMM-DIIS:  cpu time    1.5856: real time    1.6114
    ORTHCH:  cpu time    0.0835: real time    0.0846
       DOS:  cpu time    0.0016: real time    0.0016
    --------------------------------------------
      LOOP:  cpu time    2.1906: real time    2.2193

 eigenvalue-minimisations  :  6616
 total energy-change (2. order) :-0.1418283E+01  (-0.1372925E+01)
 number of electron     200.0000000 magnetization      48.0000000
 augmentation part      200.0000000 magnetization      48.0000000

 Free energy of the ion-electron system (eV)
  ---------------------------------------------------
  alpha Z        PSCENC =       372.54520999
  Ewald energy   TEWEN  =     38165.18647767
  -Hartree energ DENC   =    -46010.75833635
  -exchange      EXHF   =         0.00000000
  -V(xc)+E(xc)   XCENC  =       702.62007813
  PAW double counting   =      6154.95120234    -6186.79106147
  entropy T*S    EENTRO =        -0.00397427
  eigenvalues    EBANDS =     -1833.79785755
  atomic energy  EATOM  =      8203.71208324
  Solvation  Ediel_sol  =         0.00000000
  ---------------------------------------------------
  free energy    TOTEN  =      -432.33617826 eV

  energy without entropy =     -432.33220399  energy(sigma->0) =     -432.33419113


--------------------------------------------------------------------------------------------------------




--------------------------------------- Iteration      1(  10)  ---------------------------------------


    EDDIAG:  cpu time    0.5368: real time    0.5544
  RMM-DIIS:  cpu time    1.9433: real time    1.9658
    ORTHCH:  cpu time    0.0860: real time    0.0875
       DOS:  cpu time    0.0018: real time    0.0018
    --------------------------------------------
      LOOP:  cpu time    2.5679: real time    2.6095

 eigenvalue-minimisations  :  7373
 total energy-change (2. order) :-0.1277460E+00  (-0.1045794E+00)
 number of electron     200.0000000 magnetization      48.0000000
 augmentation part      200.0000000 magnetization      48.0000000

 Free energy of the ion-electron system (eV)
  ---------------------------------------------------
  alpha Z        PSCENC =       372.54520999
  Ewald energy   TEWEN  =     38165.18647767
  -Hartree energ DENC   =    -46010.75833635
  -exchange      EXHF   =         0.00000000
  -V(xc)+E(xc)   XCENC  =       702.62007813
  PAW double counting   =      6154.95120234    -6186.79106147
  entropy T*S    EENTRO =        -0.00417505
  eigenvalues    EBANDS =     -1833.92540276
  atomic energy  EATOM  =      8203.71208324
  Solvation  Ediel_sol  =         0.00000000
  ---------------------------------------------------
  free energy    TOTEN  =      -432.46392425 eV

  energy without entropy =     -432.45974920  energy(sigma->0) =     -432.46183673


--------------------------------------------------------------------------------------------------------




--------------------------------------- Iteration      1(  11)  ---------------------------------------


    EDDIAG:  cpu time    0.5065: real time    0.5083
  RMM-DIIS:  cpu time    1.6258: real time    1.6300
    ORTHCH:  cpu time    0.0847: real time    0.0849
       DOS:  cpu time    0.0019: real time    0.0019
    --------------------------------------------
      LOOP:  cpu time    2.2190: real time    2.2251

 eigenvalue-minimisations  :  6701
 total energy-change (2. order) :-0.2960281E-02  (-0.2715463E-02)
 number of electron     200.0000000 magnetization      48.0000000
 augmentation part      200.0000000 magnetization      48.0000000

 Free energy of the ion-electron system (eV)
  ---------------------------------------------------
  alpha Z        PSCENC =       372.54520999
  Ewald energy   TEWEN  =     38165.18647767
  -Hartree energ DENC   =    -46010.75833635
  -exchange      EXHF   =         0.00000000
  -V(xc)+E(xc)   XCENC  =       702.62007813
  PAW double counting   =      6154.95120234    -6186.79106147
  entropy T*S    EENTRO =        -0.00417844
  eigenvalues    EBANDS =     -1833.92835964
  atomic energy  EATOM  =      8203.71208324
  Solvation  Ediel_sol  =         0.00000000
  ---------------------------------------------------
  free energy    TOTEN  =      -432.46688453 eV

  energy without entropy =     -432.46270609  energy(sigma->0) =     -432.46479531


--------------------------------------------------------------------------------------------------------




--------------------------------------- Iteration      1(  12)  ---------------------------------------


    EDDIAG:  cpu time    0.5066: real time    0.5083
  RMM-DIIS:  cpu time    1.3878: real time    1.3922
    ORTHCH:  cpu time    0.0845: real time    0.0847
       DOS:  cpu time    0.0019: real time    0.0019
    CHARGE:  cpu time    0.1106: real time    0.1110
    MIXING:  cpu time    0.0016: real time    0.0020
    --------------------------------------------
      LOOP:  cpu time    2.0929: real time    2.1000

 eigenvalue-minimisations  :  5500
 total energy-change (2. order) :-0.4366890E-03  (-0.4105660E-03)
 number of electron     199.9999915 magnetization      46.2646818
 augmentation part        7.2392219 magnetization      42.7154463

 Broyden mixing:
  rms(total) = 0.43576E+01    rms(broyden)= 0.43566E+01
  rms(prec ) = 0.43937E+01
  weight for this iteration     100.00

 Free energy of the ion-electron system (eV)
  ---------------------------------------------------
  alpha Z        PSCENC =       372.54520999
  Ewald energy   TEWEN  =     38165.18647767
  -Hartree energ DENC   =    -46010.75833635
  -exchange      EXHF   =         0.00000000
  -V(xc)+E(xc)   XCENC  =       702.62007813
  PAW double counting   =      6154.95120234    -6186.79106147
  entropy T*S    EENTRO =        -0.00417850
  eigenvalues    EBANDS =     -1833.92879627
  atomic energy  EATOM  =      8203.71208324
  Solvation  Ediel_sol  =         0.00000000
  ---------------------------------------------------
  free energy    TOTEN  =      -432.46732122 eV

  energy without entropy =     -432.46314272  energy(sigma->0) =     -432.46523197


--------------------------------------------------------------------------------------------------------




--------------------------------------- Iteration      1(  13)  ---------------------------------------


    POTLOK:  cpu time    0.0346: real time    0.0348
    SETDIJ:  cpu time    0.0073: real time    0.0073
    EDDIAG:  cpu time    0.5374: real time    0.5391
  RMM-DIIS:  cpu time    1.3022: real time    1.3059
    ORTHCH:  cpu time    0.0858: real time    0.0861
       DOS:  cpu time    0.0017: real time    0.0017
    CHARGE:  cpu time    0.1103: real time    0.1105
    MIXING:  cpu time    0.0012: real time    0.0016
    --------------------------------------------
      LOOP:  cpu time    2.0804: real time    2.0870

 eigenvalue-minimisations  :  5196
 total energy-change (2. order) : 0.1259243E+03  (-0.2019643E+02)
 number of electron     199.9999908 magnetization      44.2327755
 augmentation part        7.0486564 magnetization      39.0516861

 Broyden mixing:
  rms(total) = 0.28042E+01    rms(broyden)= 0.28040E+01
  rms(prec ) = 0.28334E+01
  weight for this iteration     100.00

 eigenvalues of (default mixing * dielectric matrix)
  average eigenvalue GAMMA=   1.0039
  1.0039

 Free energy of the ion-electron system (eV)
  ---------------------------------------------------
  alpha Z        PSCENC =       372.54520999
  Ewald energy   TEWEN  =     38165.18647767
  -Hartree energ DENC   =    -46182.75545924
  -exchange      EXHF   =         0.00000000
  -V(xc)+E(xc)   XCENC  =       774.05385066
  PAW double counting   =     10409.80215743   -10445.56698228
  entropy T*S    EENTRO =        -0.00931529
  eigenvalues    EBANDS =     -1603.51107985
  atomic energy  EATOM  =      8203.71208324
  Solvation  Ediel_sol  =         0.00000000
  ---------------------------------------------------
  free energy    TOTEN  =      -306.54305766 eV

  energy without entropy =     -306.53374236  energy(sigma->0) =     -306.53840001


--------------------------------------------------------------------------------------------------------




--------------------------------------- Iteration      1(  14)  ---------------------------------------


    POTLOK:  cpu time    0.0336: real time    0.0338
    SETDIJ:  cpu time    0.0071: real time    0.0071
    EDDIAG:  cpu time    0.5116: real time    0.5131
  RMM-DIIS:  cpu time    1.4314: real time    1.4386
    ORTHCH:  cpu time    0.0836: real time    0.0841
       DOS:  cpu time    0.0017: real time    0.0017
    CHARGE:  cpu time    0.1107: real time    0.1110
    MIXING:  cpu time    0.0013: real time    0.0013
    --------------------------------------------
      LOOP:  cpu time    2.1810: real time    2.1908

 eigenvalue-minimisations  :  5716
 total energy-change (2. order) : 0.1135556E+02  (-0.1778720E+01)
 number of electron     199.9999939 magnetization      43.2648527
 augmentation part        7.3860381 magnetization      37.8034251

 Broyden mixing:
  rms(total) = 0.25925E+01    rms(broyden)= 0.25902E+01
  rms(prec ) = 0.30050E+01
  weight for this iteration     100.00

 eigenvalues of (default mixing * dielectric matrix)
  average eigenvalue GAMMA=   0.7914
  1.1206  0.4622

 Free energy of the ion-electron system (eV)
  ---------------------------------------------------
  alpha Z        PSCENC =       372.54520999
  Ewald energy   TEWEN  =     38165.18647767
  -Hartree energ DENC   =    -46434.42262253
  -exchange      EXHF   =         0.00000000
  -V(xc)+E(xc)   XCENC  =       784.58991844
  PAW double counting   =     14932.79152332   -14970.83225938
  entropy T*S    EENTRO =        -0.00579419
  eigenvalues    EBANDS =     -1348.75203329
  atomic energy  EATOM  =      8203.71208324
  Solvation  Ediel_sol  =         0.00000000
  ---------------------------------------------------
  free energy    TOTEN  =      -295.18749672 eV

  energy without entropy =     -295.18170253  energy(sigma->0) =     -295.18459962


--------------------------------------------------------------------------------------------------------




--------------------------------------- Iteration      1(  15)  ---------------------------------------


    POTLOK:  cpu time    0.0344: real time    0.0348
    SETDIJ:  cpu time    0.0075: real time    0.0075
    EDDIAG:  cpu time    0.5188: real time    0.5210
  RMM-DIIS:  cpu time    1.4831: real time    1.4924
    ORTHCH:  cpu time    0.0859: real time    0.0861
       DOS:  cpu time    0.0018: real time    0.0018
    CHARGE:  cpu time    0.1103: real time    0.1106
    MIXING:  cpu time    0.0008: real time    0.0008
    --------------------------------------------
      LOOP:  cpu time    2.2426: real time    2.2550

 eigenvalue-minimisations  :  5987
 total energy-change (2. order) :-0.2726505E+02  (-0.8442620E+00)
 number of electron     199.9999821 magnetization      41.5772796
 augmentation part        5.6128738 magnetization      32.6388635

 Broyden mixing:
  rms(total) = 0.39135E+01    rms(broyden)= 0.39076E+01
  rms(prec ) = 0.59768E+01
  weight for this iteration     100.00

 eigenvalues of (default mixing * dielectric matrix)
  average eigenvalue GAMMA=   0.7403
  1.3343  0.7144  0.1723

 Free energy of the ion-electron system (eV)
  ---------------------------------------------------
  alpha Z        PSCENC =       372.54520999
  Ewald energy   TEWEN  =     38165.18647767
  -Hartree energ DENC   =    -46235.27490989
  -exchange      EXHF   =         0.00000000
  -V(xc)+E(xc)   XCENC  =       794.62144978
  PAW double counting   =     16684.71734048   -16723.61176133
  entropy T*S    EENTRO =        -0.01083379
  eigenvalues    EBANDS =     -1584.33760140
  atomic energy  EATOM  =      8203.71208324
  Solvation  Ediel_sol  =         0.00000000
  ---------------------------------------------------
  free energy    TOTEN  =      -322.45254524 eV

  energy without entropy =     -322.44171145  energy(sigma->0) =     -322.44712835


--------------------------------------------------------------------------------------------------------




--------------------------------------- Iteration      1(  16)  ---------------------------------------


    POTLOK:  cpu time    0.0334: real time    0.0336
    SETDIJ:  cpu time    0.0072: real time    0.0072
    EDDIAG:  cpu time    0.5225: real time    0.5244
  RMM-DIIS:  cpu time    1.3804: real time    1.3848
    ORTHCH:  cpu time    0.0855: real time    0.0858
       DOS:  cpu time    0.0018: real time    0.0019
    CHARGE:  cpu time    0.1125: real time    0.1131
    MIXING:  cpu time    0.0010: real time    0.0010
    --------------------------------------------
      LOOP:  cpu time    2.1443: real time    2.1517

 eigenvalue-minimisations  :  5635
 total energy-change (2. order) : 0.5530555E+02  (-0.1164957E+01)
 number of electron     199.9999931 magnetization      39.6739282
 augmentation part        7.2047917 magnetization      33.8304029

 Broyden mixing:
  rms(total) = 0.19929E+01    rms(broyden)= 0.19845E+01
  rms(prec ) = 0.21938E+01
  weight for this iteration     100.00

 eigenvalues of (default mixing * dielectric matrix)
  average eigenvalue GAMMA=   0.9736
  2.3398  0.8520  0.5943  0.1084

 Free energy of the ion-electron system (eV)
  ---------------------------------------------------
  alpha Z        PSCENC =       372.54520999
  Ewald energy   TEWEN  =     38165.18647767
  -Hartree energ DENC   =    -46539.71220307
  -exchange      EXHF   =         0.00000000
  -V(xc)+E(xc)   XCENC  =       808.34468976
  PAW double counting   =     19603.46623090   -19642.78579510
  entropy T*S    EENTRO =        -0.00414808
  eigenvalues    EBANDS =     -1237.89954286
  atomic energy  EATOM  =      8203.71208324
  Solvation  Ediel_sol  =         0.00000000
  ---------------------------------------------------
  free energy    TOTEN  =      -267.14699754 eV

  energy without entropy =     -267.14284946  energy(sigma->0) =     -267.14492350


--------------------------------------------------------------------------------------------------------




--------------------------------------- Iteration      1(  17)  ---------------------------------------


    POTLOK:  cpu time    0.0333: real time    0.0335
    SETDIJ:  cpu time    0.0071: real time    0.0072
    EDDIAG:  cpu time    0.5235: real time    0.5296
  RMM-DIIS:  cpu time    1.4020: real time    1.4079
    ORTHCH:  cpu time    0.0847: real time    0.0849
       DOS:  cpu time    0.0020: real time    0.0020
    CHARGE:  cpu time    0.1224: real time    0.1266
    MIXING:  cpu time    0.0011: real time    0.0011
    --------------------------------------------
      LOOP:  cpu time    2.1761: real time    2.1927

 eigenvalue-minimisations  :  5750
 total energy-change (2. order) :-0.4975521E+00  (-0.2374201E+00)
 number of electron     199.9999924 magnetization      37.4896788
 augmentation part        6.9943084 magnetization      32.1282366

 Broyden mixing:
  rms(total) = 0.16787E+01    rms(broyden)= 0.16786E+01
  rms(prec ) = 0.18218E+01
  weight for this iteration     100.00

 eigenvalues of (default mixing * dielectric matrix)
  average eigenvalue GAMMA=   1.0459
  2.5439  1.0439  0.8299  0.7021  0.1096

 Free energy of the ion-electron system (eV)
  ---------------------------------------------------
  alpha Z        PSCENC =       372.54520999
  Ewald energy   TEWEN  =     38165.18647767
  -Hartree energ DENC   =    -46576.32834928
  -exchange      EXHF   =         0.00000000
  -V(xc)+E(xc)   XCENC  =       810.22204122
  PAW double counting   =     21864.79491995   -21904.42678899
  entropy T*S    EENTRO =        -0.01002779
  eigenvalues    EBANDS =     -1203.34011567
  atomic energy  EATOM  =      8203.71208324
  Solvation  Ediel_sol  =         0.00000000
  ---------------------------------------------------
  free energy    TOTEN  =      -267.64454964 eV

  energy without entropy =     -267.63452185  energy(sigma->0) =     -267.63953575


--------------------------------------------------------------------------------------------------------




--------------------------------------- Iteration      1(  18)  ---------------------------------------


    POTLOK:  cpu time    0.0332: real time    0.0335
    SETDIJ:  cpu time    0.0071: real time    0.0072
    EDDIAG:  cpu time    0.5088: real time    0.5105
  RMM-DIIS:  cpu time    1.3768: real time    1.3806
    ORTHCH:  cpu time    0.0867: real time    0.0869
       DOS:  cpu time    0.0018: real time    0.0018
    CHARGE:  cpu time    0.1106: real time    0.1109
    MIXING:  cpu time    0.0012: real time    0.0012
    --------------------------------------------
      LOOP:  cpu time    2.1262: real time    2.1325

 eigenvalue-minimisations  :  5632
 total energy-change (2. order) :-0.8719151E+01  (-0.1621902E+00)
 number of electron     199.9999909 magnetization      36.9994324
 augmentation part        6.4819915 magnetization      31.6135146

 Broyden mixing:
  rms(total) = 0.17424E+01    rms(broyden)= 0.17384E+01
  rms(prec ) = 0.18852E+01
  weight for this iteration     100.00

 eigenvalues of (default mixing * dielectric matrix)
  average eigenvalue GAMMA=   0.9205
  2.5661  0.8817  0.8067  0.8067  0.1099  0.3518

 Free energy of the ion-electron system (eV)
  ---------------------------------------------------
  alpha Z        PSCENC =       372.54520999
  Ewald energy   TEWEN  =     38165.18647767
  -Hartree energ DENC   =    -46530.45035435
  -exchange      EXHF   =         0.00000000
  -V(xc)+E(xc)   XCENC  =       805.99682581
  PAW double counting   =     22553.12505469   -22592.18389630
  entropy T*S    EENTRO =        -0.01343214
  eigenvalues    EBANDS =     -1254.28166949
  atomic energy  EATOM  =      8203.71208324
  Solvation  Ediel_sol  =         0.00000000
  ---------------------------------------------------
  free energy    TOTEN  =      -276.36370087 eV

  energy without entropy =     -276.35026873  energy(sigma->0) =     -276.35698480


--------------------------------------------------------------------------------------------------------




--------------------------------------- Iteration      1(  19)  ---------------------------------------


    POTLOK:  cpu time    0.0340: real time    0.0343
    SETDIJ:  cpu time    0.0072: real time    0.0072
    EDDIAG:  cpu time    0.5049: real time    0.5065
  RMM-DIIS:  cpu time    1.4089: real time    1.4129
    ORTHCH:  cpu time    0.0851: real time    0.0853
       DOS:  cpu time    0.0019: real time    0.0019
    CHARGE:  cpu time    0.1102: real time    0.1108
    MIXING:  cpu time    0.0011: real time    0.0011
    --------------------------------------------
      LOOP:  cpu time    2.1533: real time    2.1599

 eigenvalue-minimisations  :  5750
 total energy-change (2. order) :-0.1756959E+01  (-0.3659573E-01)
 number of electron     199.9999917 magnetization      31.5415933
 augmentation part        6.6412429 magnetization      25.7386723

 Broyden mixing:
  rms(total) = 0.14926E+01    rms(broyden)= 0.14925E+01
  rms(prec ) = 0.15435E+01
  weight for this iteration     100.00

 eigenvalues of (default mixing * dielectric matrix)
  average eigenvalue GAMMA=   1.0207
  2.5871  1.3387  0.8595  0.8595  0.6953  0.6953  0.1098

 Free energy of the ion-electron system (eV)
  ---------------------------------------------------
  alpha Z        PSCENC =       372.54520999
  Ewald energy   TEWEN  =     38165.18647767
  -Hartree energ DENC   =    -46538.77494990
  -exchange      EXHF   =         0.00000000
  -V(xc)+E(xc)   XCENC  =       804.54751609
  PAW double counting   =     22564.13437075   -22603.07031183
  entropy T*S    EENTRO =        -0.01466956
  eigenvalues    EBANDS =     -1246.38638598
  atomic energy  EATOM  =      8203.71208324
  Solvation  Ediel_sol  =         0.00000000
  ---------------------------------------------------
  free energy    TOTEN  =      -278.12065952 eV

  energy without entropy =     -278.10598997  energy(sigma->0) =     -278.11332474


--------------------------------------------------------------------------------------------------------




--------------------------------------- Iteration      1(  20)  ---------------------------------------


    POTLOK:  cpu time    0.0331: real time    0.0334
    SETDIJ:  cpu time    0.0071: real time    0.0071
    EDDIAG:  cpu time    0.5033: real time    0.5045
  RMM-DIIS:  cpu time    1.3196: real time    1.3247
    ORTHCH:  cpu time    0.0848: real time    0.0850
       DOS:  cpu time    0.0019: real time    0.0019
    CHARGE:  cpu time    0.1114: real time    0.1120
    MIXING:  cpu time    0.0013: real time    0.0013
    --------------------------------------------
      LOOP:  cpu time    2.0626: real time    2.0700

 eigenvalue-minimisations  :  5369
 total energy-change (2. order) :-0.4836200E+02  (-0.1801971E+01)
 number of electron     199.9999921 magnetization      24.2655828
 augmentation part        6.9526422 magnetization      19.6679390

 Broyden mixing:
  rms(total) = 0.14493E+01    rms(broyden)= 0.14464E+01
  rms(prec ) = 0.16358E+01
  weight for this iteration     100.00

 eigenvalues of (default mixing * dielectric matrix)
  average eigenvalue GAMMA=   1.2003
  3.4243  2.3704  0.9179  0.9179  0.1098  0.6383  0.6118  0.6118

 Free energy of the ion-electron system (eV)
  ---------------------------------------------------
  alpha Z        PSCENC =       372.54520999
  Ewald energy   TEWEN  =     38165.18647767
  -Hartree energ DENC   =    -46537.49432114
  -exchange      EXHF   =         0.00000000
  -V(xc)+E(xc)   XCENC  =       776.18217141
  PAW double counting   =     22840.00188375   -22877.68628860
  entropy T*S    EENTRO =        -0.01402119
  eigenvalues    EBANDS =     -1268.91585146
  atomic energy  EATOM  =      8203.71208324
  Solvation  Ediel_sol  =         0.00000000
  ---------------------------------------------------
  free energy    TOTEN  =      -326.48265632 eV

  energy without entropy =     -326.46863513  energy(sigma->0) =     -326.47564572


--------------------------------------------------------------------------------------------------------




--------------------------------------- Iteration      1(  21)  ---------------------------------------


    POTLOK:  cpu time    0.0333: real time    0.0335
    SETDIJ:  cpu time    0.0071: real time    0.0072
    EDDIAG:  cpu time    0.5047: real time    0.5060
  RMM-DIIS:  cpu time    1.3383: real time    1.3420
    ORTHCH:  cpu time    0.0859: real time    0.0865
       DOS:  cpu time    0.0018: real time    0.0018
    CHARGE:  cpu time    0.1104: real time    0.1107
    MIXING:  cpu time    0.0014: real time    0.0014
    --------------------------------------------
      LOOP:  cpu time    2.0830: real time    2.0891

 eigenvalue-minimisations  :  5393
 total energy-change (2. order) :-0.4014397E+02  (-0.2098993E+01)
 number of electron     199.9999942 magnetization      21.8111265
 augmentation part        7.2245447 magnetization      18.3074845

 Broyden mixing:
  rms(total) = 0.19322E+01    rms(broyden)= 0.19317E+01
  rms(prec ) = 0.23253E+01
  weight for this iteration     100.00

 eigenvalues of (default mixing * dielectric matrix)
  average eigenvalue GAMMA=   1.2440
  4.3361  2.3638  0.9246  0.9246  0.1098  0.6083  0.6083  0.7857  0.5344

 Free energy of the ion-electron system (eV)
  ---------------------------------------------------
  alpha Z        PSCENC =       372.54520999
  Ewald energy   TEWEN  =     38165.18647767
  -Hartree energ DENC   =    -46535.01897825
  -exchange      EXHF   =         0.00000000
  -V(xc)+E(xc)   XCENC  =       754.68037300
  PAW double counting   =     22772.59972745   -22809.11473859
  entropy T*S    EENTRO =        -0.01076128
  eigenvalues    EBANDS =     -1291.20602336
  atomic energy  EATOM  =      8203.71208324
  Solvation  Ediel_sol  =         0.00000000
  ---------------------------------------------------
  free energy    TOTEN  =      -366.62663011 eV

  energy without entropy =     -366.61586884  energy(sigma->0) =     -366.62124948


--------------------------------------------------------------------------------------------------------




--------------------------------------- Iteration      1(  22)  ---------------------------------------


    POTLOK:  cpu time    0.0335: real time    0.0338
    SETDIJ:  cpu time    0.0072: real time    0.0072
    EDDIAG:  cpu time    0.5093: real time    0.5107
  RMM-DIIS:  cpu time    1.4082: real time    1.4123
    ORTHCH:  cpu time    0.0856: real time    0.0858
       DOS:  cpu time    0.0019: real time    0.0019
    CHARGE:  cpu time    0.1111: real time    0.1113
    MIXING:  cpu time    0.0015: real time    0.0015
    --------------------------------------------
      LOOP:  cpu time    2.1583: real time    2.1646

 eigenvalue-minimisations  :  5788
 total energy-change (2. order) :-0.8204072E+01  (-0.3153492E+00)
 number of electron     199.9999943 magnetization      14.7779901
 augmentation part        7.2084530 magnetization      11.4328986

 Broyden mixing:
  rms(total) = 0.17417E+01    rms(broyden)= 0.17416E+01
  rms(prec ) = 0.21916E+01
  weight for this iteration     100.00

 eigenvalues of (default mixing * dielectric matrix)
  average eigenvalue GAMMA=   1.4660
  6.2371  2.5441  1.1886  1.1886  0.1098  0.6205  0.6205  0.7908  0.7908  0.5693

 Free energy of the ion-electron system (eV)
  ---------------------------------------------------
  alpha Z        PSCENC =       372.54520999
  Ewald energy   TEWEN  =     38165.18647767
  -Hartree energ DENC   =    -46535.62412270
  -exchange      EXHF   =         0.00000000
  -V(xc)+E(xc)   XCENC  =       750.75972254
  PAW double counting   =     22666.91094433   -22703.61252079
  entropy T*S    EENTRO =        -0.01318454
  eigenvalues    EBANDS =     -1294.69531136
  atomic energy  EATOM  =      8203.71208324
  Solvation  Ediel_sol  =         0.00000000
  ---------------------------------------------------
  free energy    TOTEN  =      -374.83070162 eV

  energy without entropy =     -374.81751709  energy(sigma->0) =     -374.82410935


--------------------------------------------------------------------------------------------------------




--------------------------------------- Iteration      1(  23)  ---------------------------------------


    POTLOK:  cpu time    0.0338: real time    0.0340
    SETDIJ:  cpu time    0.0073: real time    0.0073
    EDDIAG:  cpu time    0.5032: real time    0.5044
  RMM-DIIS:  cpu time    1.2737: real time    1.2775
    ORTHCH:  cpu time    0.0845: real time    0.0847
       DOS:  cpu time    0.0020: real time    0.0020
    CHARGE:  cpu time    0.1109: real time    0.1112
    MIXING:  cpu time    0.0021: real time    0.0022
    --------------------------------------------
      LOOP:  cpu time    2.0175: real time    2.0233

 eigenvalue-minimisations  :  5195
 total energy-change (2. order) :-0.2779497E+02  (-0.5291163E+01)
 number of electron     199.9999927 magnetization       8.8933407
 augmentation part        6.8810114 magnetization       7.4682104

 Broyden mixing:
  rms(total) = 0.99261E+00    rms(broyden)= 0.99212E+00
  rms(prec ) = 0.10865E+01
  weight for this iteration     100.00

 eigenvalues of (default mixing * dielectric matrix)
  average eigenvalue GAMMA=   1.7897
 10.1343  2.6235  1.2150  1.2150  1.1833  0.1098  0.8581  0.5966  0.5966  0.5772
  0.5772

 Free energy of the ion-electron system (eV)
  ---------------------------------------------------
  alpha Z        PSCENC =       372.54520999
  Ewald energy   TEWEN  =     38165.18647767
  -Hartree energ DENC   =    -46494.11691902
  -exchange      EXHF   =         0.00000000
  -V(xc)+E(xc)   XCENC  =       737.01525826
  PAW double counting   =     21484.31459707   -21521.79013723
  entropy T*S    EENTRO =        -0.01532154
  eigenvalues    EBANDS =     -1349.47691653
  atomic energy  EATOM  =      8203.71208324
  Solvation  Ediel_sol  =         0.00000000
  ---------------------------------------------------
  free energy    TOTEN  =      -402.62566807 eV

  energy without entropy =     -402.61034653  energy(sigma->0) =     -402.61800730


--------------------------------------------------------------------------------------------------------




--------------------------------------- Iteration      1(  24)  ---------------------------------------


    POTLOK:  cpu time    0.0335: real time    0.0337
    SETDIJ:  cpu time    0.0072: real time    0.0072
    EDDIAG:  cpu time    0.5027: real time    0.5039
  RMM-DIIS:  cpu time    1.3245: real time    1.3383
    ORTHCH:  cpu time    0.0844: real time    0.0846
       DOS:  cpu time    0.0018: real time    0.0018
    CHARGE:  cpu time    0.1106: real time    0.1109
    MIXING:  cpu time    0.0016: real time    0.0016
    --------------------------------------------
      LOOP:  cpu time    2.0662: real time    2.0819

 eigenvalue-minimisations  :  5256
 total energy-change (2. order) :-0.1078261E+02  (-0.1190615E+01)
 number of electron     199.9999930 magnetization       6.8486917
 augmentation part        6.7358600 magnetization       6.0472764

 Broyden mixing:
  rms(total) = 0.62245E+00    rms(broyden)= 0.62141E+00
  rms(prec ) = 0.70872E+00
  weight for this iteration     100.00

 eigenvalues of (default mixing * dielectric matrix)
  average eigenvalue GAMMA=   2.1318
 14.5882  2.5217  2.0161  1.2245  1.2245  0.1098  0.6114  0.6114  0.8456  0.6280
  0.6280  0.5729

 Free energy of the ion-electron system (eV)
  ---------------------------------------------------
  alpha Z        PSCENC =       372.54520999
  Ewald energy   TEWEN  =     38165.18647767
  -Hartree energ DENC   =    -46468.87095261
  -exchange      EXHF   =         0.00000000
  -V(xc)+E(xc)   XCENC  =       729.97865804
  PAW double counting   =     20934.09043754   -20971.56677843
  entropy T*S    EENTRO =        -0.02351955
  eigenvalues    EBANDS =     -1378.45989703
  atomic energy  EATOM  =      8203.71208324
  Solvation  Ediel_sol  =         0.00000000
  ---------------------------------------------------
  free energy    TOTEN  =      -413.40828113 eV

  energy without entropy =     -413.38476158  energy(sigma->0) =     -413.39652135


--------------------------------------------------------------------------------------------------------




--------------------------------------- Iteration      1(  25)  ---------------------------------------


    POTLOK:  cpu time    0.0333: real time    0.0336
    SETDIJ:  cpu time    0.0072: real time    0.0072
    EDDIAG:  cpu time    0.5057: real time    0.5079
  RMM-DIIS:  cpu time    1.3846: real time    1.3882
    ORTHCH:  cpu time    0.0848: real time    0.0850
       DOS:  cpu time    0.0019: real time    0.0019
    CHARGE:  cpu time    0.1129: real time    0.1134
    MIXING:  cpu time    0.0018: real time    0.0018
    --------------------------------------------
      LOOP:  cpu time    2.1323: real time    2.1390

 eigenvalue-minimisations  :  5672
 total energy-change (2. order) :-0.3784611E+01  (-0.2505154E+00)
 number of electron     199.9999927 magnetization       4.9993313
 augmentation part        6.6886474 magnetization       3.8896057

 Broyden mixing:
  rms(total) = 0.48125E+00    rms(broyden)= 0.48034E+00
  rms(prec ) = 0.53175E+00
  weight for this iteration     100.00

 eigenvalues of (default mixing * dielectric matrix)
  average eigenvalue GAMMA=   2.3691
 18.1345  2.5334  2.5334  1.3409  1.3409  0.1098  0.6081  0.6081  0.8564  0.7918
  0.7918  0.5745  0.5745

 Free energy of the ion-electron system (eV)
  ---------------------------------------------------
  alpha Z        PSCENC =       372.54520999
  Ewald energy   TEWEN  =     38165.18647767
  -Hartree energ DENC   =    -46443.15779298
  -exchange      EXHF   =         0.00000000
  -V(xc)+E(xc)   XCENC  =       726.21617985
  PAW double counting   =     20779.28634815   -20816.78865466
  entropy T*S    EENTRO =        -0.00818096
  eigenvalues    EBANDS =     -1404.18456231
  atomic energy  EATOM  =      8203.71208324
  Solvation  Ediel_sol  =         0.00000000
  ---------------------------------------------------
  free energy    TOTEN  =      -417.19289201 eV

  energy without entropy =     -417.18471105  energy(sigma->0) =     -417.18880153


--------------------------------------------------------------------------------------------------------




--------------------------------------- Iteration      1(  26)  ---------------------------------------


    POTLOK:  cpu time    0.0335: real time    0.0337
    SETDIJ:  cpu time    0.0072: real time    0.0072
    EDDIAG:  cpu time    0.5035: real time    0.5051
  RMM-DIIS:  cpu time    1.3962: real time    1.4000
    ORTHCH:  cpu time    0.0873: real time    0.0883
       DOS:  cpu time    0.0019: real time    0.0019
    CHARGE:  cpu time    0.1114: real time    0.1117
    MIXING:  cpu time    0.0019: real time    0.0019
    --------------------------------------------
      LOOP:  cpu time    2.1429: real time    2.1497

 eigenvalue-minimisations  :  5699
 total energy-change (2. order) :-0.2976440E+01  (-0.1997730E+00)
 number of electron     199.9999923 magnetization       4.0404562
 augmentation part        6.6048351 magnetization       2.5591211

 Broyden mixing:
  rms(total) = 0.31218E+00    rms(broyden)= 0.30835E+00
  rms(prec ) = 0.31063E+00
  weight for this iteration     100.00

 eigenvalues of (default mixing * dielectric matrix)
  average eigenvalue GAMMA=   2.4918
 20.4213  3.1502  2.4781  1.4027  1.4027  0.1098  0.9975  0.9975  0.6061  0.6061
  0.8940  0.6378  0.6116  0.5700

 Free energy of the ion-electron system (eV)
  ---------------------------------------------------
  alpha Z        PSCENC =       372.54520999
  Ewald energy   TEWEN  =     38165.18647767
  -Hartree energ DENC   =    -46409.74177974
  -exchange      EXHF   =         0.00000000
  -V(xc)+E(xc)   XCENC  =       723.45117394
  PAW double counting   =     20540.03233071   -20577.54009340
  entropy T*S    EENTRO =        -0.01424615
  eigenvalues    EBANDS =     -1437.80048812
  atomic energy  EATOM  =      8203.71208324
  Solvation  Ediel_sol  =         0.00000000
  ---------------------------------------------------
  free energy    TOTEN  =      -420.16933187 eV

  energy without entropy =     -420.15508572  energy(sigma->0) =     -420.16220879


--------------------------------------------------------------------------------------------------------




--------------------------------------- Iteration      1(  27)  ---------------------------------------


    POTLOK:  cpu time    0.0339: real time    0.0342
    SETDIJ:  cpu time    0.0073: real time    0.0073
    EDDIAG:  cpu time    0.5075: real time    0.5091
  RMM-DIIS:  cpu time    1.3764: real time    1.3803
    ORTHCH:  cpu time    0.0855: real time    0.0857
       DOS:  cpu time    0.0018: real time    0.0018
    CHARGE:  cpu time    0.1109: real time    0.1112
    MIXING:  cpu time    0.0020: real time    0.0020
    --------------------------------------------
      LOOP:  cpu time    2.1254: real time    2.1316

 eigenvalue-minimisations  :  5635
 total energy-change (2. order) :-0.2291420E+01  (-0.1494379E+00)
 number of electron     199.9999923 magnetization       3.4156834
 augmentation part        6.5793065 magnetization       1.7416611

 Broyden mixing:
  rms(total) = 0.20840E+00    rms(broyden)= 0.20603E+00
  rms(prec ) = 0.21180E+00
  weight for this iteration     100.00

 eigenvalues of (default mixing * dielectric matrix)
  average eigenvalue GAMMA=   2.5582
[...]
     67      -4.5151      1.00000
     68      -4.5144      1.00000
     69      -4.4893      1.00000
     70      -4.4887      1.00000
     71      -4.2913      1.00000
     72      -4.2908      1.00000
     73      -4.2078      1.00000
     74      -4.2063      1.00000
     75      -3.9980      1.00000
     76      -3.9976      1.00000
     77      -3.8223      1.00000
     78      -3.8219      1.00000
     79      -3.6462      1.00000
     80      -3.6455      1.00000
     81      -3.4789      1.00000
     82      -3.4765      1.00000
     83      -3.2854      1.00000
     84      -3.2832      1.00000
     85      -3.2299      1.00000
     86      -3.2291      1.00000
     87      -2.7762      1.00000
     88      -2.7757      1.00000
     89      -2.2899      1.00000
     90      -2.2894      1.00000
     91      -1.7974      1.00000
     92      -1.7971      1.00000
     93      -1.3614      1.00000
     94      -1.3601      1.00000
     95      -1.0594      1.00000
     96      -1.0557      1.00000
     97      -0.3662      1.00000
     98      -0.3593      1.00000
     99       1.4675      1.00000
    100       1.4743      1.00000
    101       1.9079      0.00123
    102       1.9150      0.00062
    103       3.2202      0.00000
    104       3.2204      0.00000
    105       3.8104      0.00000
    106       3.8114      0.00000
    107       4.5591      0.00000
    108       4.5593      0.00000
    109       5.3862      0.00000
    110       5.3864      0.00000
    111       6.2336      0.00000
    112       6.2340      0.00000
    113       7.0591      0.00000
    114       7.0593      0.00000
    115       7.8068      0.00000
    116       7.8071      0.00000
    117       8.4373      0.00000
    118       8.4376      0.00000
    119       8.9176      0.00000
    120       8.9177      0.00000
    121       8.9829      0.00000
    122       8.9830      0.00000
    123       9.1944      0.00000
    124       9.1950      0.00000
    125       9.2415      0.00000
    126       9.2420      0.00000
    127       9.3890      0.00000
    128       9.3892      0.00000
    129       9.4945      0.00000
    130       9.4947      0.00000
    131       9.8268      0.00000
    132       9.8285      0.00000
    133      10.0795      0.00000
    134      10.0803      0.00000
    135      10.1807      0.00000
    136      10.1808      0.00000
    137      10.5738      0.00000
    138      10.5741      0.00000
    139      10.6903      0.00000
    140      10.6914      0.00000
    141      11.1854      0.00000
    142      11.1859      0.00000
    143      11.3182      0.00000
    144      11.3184      0.00000
    145      11.8463      0.00000
    146      11.8502      0.00000
    147      12.5323      0.00000
    148      12.5369      0.00000
    149      12.6139      0.00000
    150      12.6216      0.00000
    151      13.3869      0.00000
    152      13.4455      0.00000


--------------------------------------------------------------------------------------------------------


 soft charge-density along one line, spin component           1
         0         1         2         3         4         5         6         7         8         9
 total charge-density along one line
 
 soft charge-density along one line, spin component           2
         0         1         2         3         4         5         6         7         8         9
 total charge-density along one line
 
 pseudopotential strength for first ion, spin component:           1
  9.941  13.214   0.000   0.000   0.000  -0.000  -0.000  -0.000
 13.214  17.563   0.000   0.000   0.000  -0.000  -0.000  -0.000
  0.000   0.000  -4.104  -0.000   0.000   8.028   0.000  -0.000
  0.000   0.000  -0.000  -4.096  -0.000   0.000   8.018   0.000
  0.000   0.000   0.000  -0.000  -4.104  -0.000   0.000   8.028
 -0.000  -0.000   8.028   0.000  -0.000 -17.826  -0.000   0.000
 -0.000  -0.000   0.000   8.018   0.000  -0.000 -17.817  -0.000
 -0.000  -0.000  -0.000   0.000   8.028   0.000  -0.000 -17.826
 pseudopotential strength for first ion, spin component:           2
  9.941  13.214   0.000   0.000   0.000  -0.000  -0.000  -0.000
 13.214  17.563   0.000   0.000   0.000  -0.000  -0.000  -0.000
  0.000   0.000  -4.104  -0.000   0.000   8.028   0.000  -0.000
  0.000   0.000  -0.000  -4.096  -0.000   0.000   8.018   0.000
  0.000   0.000   0.000  -0.000  -4.104  -0.000   0.000   8.028
 -0.000  -0.000   8.028   0.000  -0.000 -17.826  -0.000   0.000
 -0.000  -0.000   0.000   8.018   0.000  -0.000 -17.817  -0.000
 -0.000  -0.000  -0.000   0.000   8.028   0.000  -0.000 -17.826
 total augmentation occupancy for first ion, spin component:           1
  8.232  -3.670   0.003  -0.001  -0.004   0.000  -0.000  -0.001
 -3.670   1.694  -0.002   0.000   0.002  -0.000  -0.000   0.000
  0.003  -0.002   1.824  -0.000  -0.001   0.168  -0.000  -0.000
 -0.001   0.000  -0.000   1.202  -0.002  -0.000   0.072  -0.000
 -0.004   0.002  -0.001  -0.002   1.821  -0.000  -0.000   0.168
  0.000  -0.000   0.168  -0.000  -0.000   0.017  -0.000  -0.000
 -0.000  -0.000  -0.000   0.072  -0.000  -0.000   0.005   0.000
 -0.001   0.000  -0.000  -0.000   0.168  -0.000   0.000   0.017
 total augmentation occupancy for first ion, spin component:           2
 -0.000   0.000  -0.000   0.000  -0.000  -0.000   0.000  -0.000
  0.000  -0.000   0.000  -0.000   0.000   0.000  -0.000   0.000
 -0.000   0.000   0.000   0.000  -0.000  -0.000  -0.000  -0.000
  0.000  -0.000   0.000  -0.001  -0.000   0.000  -0.000   0.000
 -0.000   0.000  -0.000  -0.000   0.000  -0.000   0.000  -0.000
 -0.000   0.000  -0.000   0.000  -0.000  -0.000  -0.000   0.000
  0.000  -0.000  -0.000  -0.000   0.000  -0.000   0.000   0.000
 -0.000   0.000  -0.000   0.000  -0.000   0.000   0.000  -0.000


------------------------ aborting loop because EDIFF is reached ----------------------------------------


    CHARGE:  cpu time    0.1092: real time    0.1095
    FORLOC:  cpu time    0.0049: real time    0.0049
    FORNL :  cpu time    0.5115: real time    0.5144
    FORCOR:  cpu time    0.0446: real time    0.0447
    FORHAR:  cpu time    0.0076: real time    0.0077
    MIXING:  cpu time    0.0010: real time    0.0010
    OFIELD:  cpu time    0.0000: real time    0.0000

  Number of pair interactions contributing to vdW energy: 1155973
  Edisp (eV):   -6.02654
    FORVDW:  cpu time    0.1216: real time    0.1219

 VOLUME and BASIS-vectors are now :
 -----------------------------------------------------------------------------
  energy-cutoff  :      450.00
  volume of cell :      534.83
      direct lattice vectors                 reciprocal lattice vectors
     4.266200066  0.000000000  0.000000000     0.234400634  0.000000000  0.104785421
     0.000000000 39.409500122  0.000000000     0.000000000  0.025374592  0.000000000
    -1.422064714  0.000000000  3.181099698     0.000000000  0.000000000  0.314356699

  length of vectors
     4.266200066 39.409500122  3.484488964     0.256755996  0.025374592  0.314356699


 FORCES acting on ions
    electron-ion (+dipol)            ewald-force                    non-local-force                 convergence-correction
 -----------------------------------------------------------------------------------------------
   -.366E+00 0.470E+02 0.199E+00   0.349E+00 -.470E+02 -.208E+00   0.214E-01 0.218E-01 0.825E-02   0.572E-03 -.806E-02 0.222E-04
   0.365E+00 0.470E+02 -.199E+00   -.347E+00 -.470E+02 0.207E+00   -.265E-01 0.195E-01 -.874E-02   -.571E-03 -.806E-02 -.218E-04
   -.366E+00 -.470E+02 0.199E+00   0.349E+00 0.470E+02 -.208E+00   0.214E-01 -.218E-01 0.825E-02   0.572E-03 0.807E-02 0.222E-04
   0.365E+00 -.470E+02 -.199E+00   -.347E+00 0.470E+02 0.207E+00   -.265E-01 -.195E-01 -.874E-02   -.571E-03 0.808E-02 -.218E-04
   0.187E+00 -.140E+03 0.209E+00   -.160E+00 0.140E+03 -.218E+00   -.765E-02 -.164E-01 -.172E-02   0.953E-04 0.281E-01 -.465E-04
   -.189E+00 -.140E+03 -.209E+00   0.162E+00 0.140E+03 0.218E+00   0.110E-01 -.146E-01 0.193E-02   -.987E-04 0.281E-01 0.472E-04
   -.364E+00 -.234E+03 0.198E+00   0.351E+00 0.234E+03 -.207E+00   0.210E-01 -.704E-03 0.114E-01   0.643E-04 0.458E-01 -.195E-04
   0.373E+00 -.234E+03 -.198E+00   -.361E+00 0.234E+03 0.207E+00   -.154E-01 -.319E-02 -.115E-01   -.622E-04 0.458E-01 0.193E-04
   -.294E+00 -.328E+03 0.200E+00   0.280E+00 0.327E+03 -.208E+00   0.264E-01 -.304E-01 0.397E-02   0.893E-03 0.600E-01 0.541E-04
   0.283E+00 -.328E+03 -.200E+00   -.269E+00 0.328E+03 0.209E+00   -.257E-01 -.324E-01 -.417E-02   -.891E-03 0.600E-01 -.514E-04
   0.194E+00 -.421E+03 0.211E+00   -.180E+00 0.421E+03 -.219E+00   -.780E-03 -.477E-01 -.789E-02   0.689E-04 0.772E-01 -.481E-04
   -.186E+00 -.421E+03 -.211E+00   0.172E+00 0.421E+03 0.219E+00   -.438E-03 -.460E-01 0.732E-02   -.688E-04 0.772E-01 0.476E-04
   -.559E+00 -.514E+03 0.196E+00   0.549E+00 0.514E+03 -.205E+00   0.623E-02 -.303E-01 0.129E-01   -.126E-03 0.878E-01 -.475E-04
   0.557E+00 -.514E+03 -.196E+00   -.547E+00 0.514E+03 0.205E+00   -.937E-02 -.339E-01 -.129E-01   0.123E-03 0.878E-01 0.472E-04
   -.310E+00 -.608E+03 0.201E+00   0.337E+00 0.608E+03 -.207E+00   0.159E-01 -.533E-04 -.181E-01   0.139E-02 0.950E-01 0.117E-03
   0.304E+00 -.608E+03 -.201E+00   -.331E+00 0.608E+03 0.207E+00   -.186E-01 0.389E-02 0.178E-01   -.138E-02 0.950E-01 -.119E-03
   0.220E+00 -.701E+03 0.223E+00   -.278E+00 0.701E+03 -.230E+00   0.279E-01 -.200E-01 -.203E-01   -.196E-02 0.103E+00 -.179E-03
   -.213E+00 -.701E+03 -.223E+00   0.270E+00 0.701E+03 0.230E+00   -.289E-01 -.211E-01 0.201E-01   0.197E-02 0.103E+00 0.178E-03
   -.215E+01 -.794E+03 0.206E+00   0.225E+01 0.794E+03 -.216E+00   -.540E-01 0.894E-01 0.104E-01   0.424E-02 0.994E-01 0.128E-03
   0.214E+01 -.794E+03 -.206E+00   -.224E+01 0.794E+03 0.217E+00   0.513E-01 0.908E-01 -.105E-01   -.425E-02 0.994E-01 -.131E-03
   0.313E-01 -.892E+03 -.179E-01   0.221E+00 0.891E+03 0.388E-01   -.268E+00 0.663E+00 -.185E+00   -.495E-02 0.957E-01 0.221E-03
   -.185E-01 -.892E+03 0.183E-01   -.235E+00 0.891E+03 -.393E-01   0.268E+00 0.664E+00 0.184E+00   0.496E-02 0.958E-01 -.218E-03
   0.459E+01 -.936E+03 0.104E+01   -.411E+01 0.932E+03 -.109E+01   -.135E+01 0.464E+01 0.193E+00   0.420E-02 0.700E-01 -.336E-03
   -.463E+01 -.936E+03 -.104E+01   0.415E+01 0.932E+03 0.109E+01   0.136E+01 0.464E+01 -.192E+00   -.424E-02 0.699E-01 0.337E-03
   0.459E+01 0.936E+03 0.104E+01   -.411E+01 -.932E+03 -.109E+01   -.135E+01 -.464E+01 0.193E+00   0.420E-02 -.700E-01 -.336E-03
   -.463E+01 0.936E+03 -.104E+01   0.415E+01 -.932E+03 0.109E+01   0.136E+01 -.464E+01 -.192E+00   -.424E-02 -.699E-01 0.337E-03
   0.310E-01 0.892E+03 -.179E-01   0.226E+00 -.891E+03 0.389E-01   -.268E+00 -.663E+00 -.185E+00   -.495E-02 -.957E-01 0.221E-03
   -.182E-01 0.892E+03 0.183E-01   -.239E+00 -.891E+03 -.393E-01   0.268E+00 -.664E+00 0.184E+00   0.496E-02 -.958E-01 -.218E-03
   -.215E+01 0.794E+03 0.206E+00   0.224E+01 -.794E+03 -.216E+00   -.540E-01 -.894E-01 0.104E-01   0.424E-02 -.994E-01 0.128E-03
   0.214E+01 0.794E+03 -.206E+00   -.224E+01 -.794E+03 0.217E+00   0.513E-01 -.908E-01 -.105E-01   -.425E-02 -.994E-01 -.131E-03
   0.220E+00 0.701E+03 0.223E+00   -.277E+00 -.701E+03 -.230E+00   0.279E-01 0.200E-01 -.203E-01   -.196E-02 -.103E+00 -.179E-03
   -.213E+00 0.701E+03 -.223E+00   0.270E+00 -.701E+03 0.230E+00   -.289E-01 0.211E-01 0.201E-01   0.197E-02 -.103E+00 0.178E-03
   -.310E+00 0.608E+03 0.201E+00   0.341E+00 -.608E+03 -.207E+00   0.159E-01 0.533E-04 -.181E-01   0.139E-02 -.950E-01 0.117E-03
   0.304E+00 0.608E+03 -.201E+00   -.334E+00 -.608E+03 0.207E+00   -.186E-01 -.389E-02 0.178E-01   -.138E-02 -.950E-01 -.119E-03
   -.559E+00 0.514E+03 0.196E+00   0.549E+00 -.514E+03 -.205E+00   0.623E-02 0.303E-01 0.129E-01   -.126E-03 -.878E-01 -.475E-04
   0.557E+00 0.514E+03 -.196E+00   -.547E+00 -.514E+03 0.205E+00   -.937E-02 0.339E-01 -.129E-01   0.123E-03 -.878E-01 0.472E-04
   0.194E+00 0.421E+03 0.211E+00   -.179E+00 -.421E+03 -.219E+00   -.780E-03 0.477E-01 -.789E-02   0.690E-04 -.772E-01 -.481E-04
   -.186E+00 0.421E+03 -.211E+00   0.172E+00 -.421E+03 0.219E+00   -.438E-03 0.460E-01 0.732E-02   -.688E-04 -.772E-01 0.476E-04
   -.294E+00 0.328E+03 0.200E+00   0.276E+00 -.327E+03 -.208E+00   0.264E-01 0.304E-01 0.397E-02   0.893E-03 -.600E-01 0.541E-04
   0.283E+00 0.328E+03 -.200E+00   -.265E+00 -.328E+03 0.209E+00   -.257E-01 0.324E-01 -.417E-02   -.891E-03 -.600E-01 -.514E-04
   -.364E+00 0.234E+03 0.198E+00   0.347E+00 -.234E+03 -.207E+00   0.210E-01 0.704E-03 0.114E-01   0.643E-04 -.458E-01 -.195E-04
   0.373E+00 0.234E+03 -.198E+00   -.357E+00 -.234E+03 0.207E+00   -.154E-01 0.319E-02 -.115E-01   -.622E-04 -.458E-01 0.193E-04
   0.187E+00 0.140E+03 0.209E+00   -.160E+00 -.140E+03 -.218E+00   -.765E-02 0.164E-01 -.172E-02   0.953E-04 -.281E-01 -.465E-04
   -.189E+00 0.140E+03 -.209E+00   0.162E+00 -.140E+03 0.218E+00   0.110E-01 0.146E-01 0.193E-02   -.986E-04 -.281E-01 0.472E-04
   -.372E+02 -.181E+04 -.913E+00   0.476E+02 0.186E+04 0.110E+01   -.947E+01 -.515E+02 -.227E+00   -.412E-02 0.498E-01 -.318E-03
   0.372E+02 -.181E+04 0.913E+00   -.476E+02 0.186E+04 -.110E+01   0.948E+01 -.515E+02 0.227E+00   0.413E-02 0.498E-01 0.324E-03
   -.372E+02 0.181E+04 -.913E+00   0.476E+02 -.186E+04 0.110E+01   -.947E+01 0.515E+02 -.227E+00   -.412E-02 -.498E-01 -.318E-03
   0.372E+02 0.181E+04 0.913E+00   -.476E+02 -.186E+04 -.110E+01   0.948E+01 0.515E+02 0.227E+00   0.413E-02 -.498E-01 0.324E-03
 -----------------------------------------------------------------------------------------------
   -.153E-01 0.122E+00 -.290E-03   0.107E-12 0.455E-12 -.946E-13   0.127E-01 0.000E+00 -.260E-02   -.367E-04 -.759E-04 0.139E-04
 
 
 POSITION                                       TOTAL-FORCE (eV/Angst)
 -----------------------------------------------------------------------------------
      4.26503      0.00031      0.00000         0.004647      0.005724     -0.008130
      1.42170      0.00031      0.00000        -0.009252      0.003850      0.007764
      2.13193      1.23049      0.00000         0.004647     -0.005724     -0.008130
      3.55480      1.23049      0.00000        -0.009252     -0.003850      0.007764
      4.26577      2.46157      0.00000         0.019060      0.005374     -0.017759
      1.42070      2.46148      0.00000        -0.015822      0.006668      0.018091
      2.13168      3.69262      0.00000         0.006032      0.003986     -0.005103
      3.55481      3.69268      0.00000        -0.001836      0.001572      0.005192
      4.26504      4.92321      0.00000         0.011749     -0.005763     -0.011991
      1.42178      4.92328      0.00000        -0.010398     -0.007717      0.011927
      2.13284      6.15476      0.00000         0.013288      0.009662     -0.023588
      3.55430      6.15472      0.00000        -0.014591      0.011272      0.023130
      4.26484      7.38605      0.00000        -0.003883     -0.001926     -0.004041
      1.42260      7.38619      0.00000         0.001345     -0.005108      0.004211
      2.13210      8.61629      0.00000         0.046992     -0.021241     -0.030996
      3.55547      8.61618      0.00000        -0.048464     -0.017179      0.030803
      4.26547      9.84847      0.00000        -0.031890      0.060336     -0.035515
      1.42208      9.84851      0.00000         0.031055      0.061086      0.035361
      2.12986     11.08080      0.00000         0.047661     -0.114996     -0.007478
      3.55760     11.08074      0.00000        -0.050035     -0.113384      0.007553
      0.00924     12.30166      0.00000        -0.001109      0.060091     -0.171778
      1.41175     12.30161      0.00000         0.001098      0.059310      0.171623
      2.13361     13.52895      0.00000        -0.846849      0.702775      0.136777
      3.55322     13.52897      0.00000         0.849290      0.702289     -0.135972
      0.00051     27.11135      0.00000        -0.846849     -0.702775      0.136777
      1.42012     27.11132      0.00000         0.849290     -0.702289     -0.135972
      2.14234     28.33860      0.00000        -0.001109     -0.060091     -0.171778
      3.54485     28.33865      0.00000         0.001098     -0.059310      0.171623
      4.26296     29.55946      0.00000         0.047661      0.114996     -0.007478
      1.42450     29.55952      0.00000        -0.050035      0.113384      0.007553
      2.13237     30.79183      0.00000        -0.031890     -0.060336     -0.035515
      3.55518     30.79179      0.00000         0.031055     -0.061086      0.035361
      4.26520     32.02397      0.00000         0.046992      0.021241     -0.030996
      1.42237     32.02408      0.00000        -0.048464      0.017179      0.030803
      2.13174     33.25421      0.00000        -0.003883      0.001926     -0.004041
      3.55570     33.25407      0.00000         0.001345      0.005108      0.004211
      4.26594     34.48550      0.00000         0.013288     -0.009662     -0.023588
      1.42120     34.48554      0.00000        -0.014591     -0.011272      0.023130
      2.13194     35.71705      0.00000         0.011749      0.005763     -0.011991
      3.55488     35.71698      0.00000        -0.010398      0.007717      0.011927
      4.26478     36.94768      0.00000         0.006032     -0.003986     -0.005103
      1.42171     36.94761      0.00000        -0.001836     -0.001572      0.005192
      2.13267     38.17873      0.00000         0.019060     -0.005374     -0.017759
      3.55380     38.17882      0.00000        -0.015822     -0.006668      0.018091
      3.96259     14.74613      0.00000         0.934039     -0.680119     -0.038840
      1.72392     14.74600      0.00000        -0.932128     -0.679962      0.038759
      1.82949     25.89417      0.00000         0.934039      0.680119     -0.038840
      3.85702     25.89430      0.00000        -0.932128      0.679962      0.038759
 -----------------------------------------------------------------------------------
    total drift:                               -0.002597      0.121563     -0.002876


--------------------------------------------------------------------------------------------------------



  FREE ENERGIE OF THE ION-ELECTRON SYSTEM (eV)
  ---------------------------------------------------
  free  energy   TOTEN  =      -429.60424187 eV

  energy  without entropy=     -429.59354135  energy(sigma->0) =     -429.59889161
 
 d Force = 0.0000000E+00[ 0.000E+00, 0.000E+00]  d Energy =-0.3367253E-02 0.337E-02
 d Force = 0.0000000E+00[ 0.000E+00, 0.000E+00]  d Ewald  = 0.0000000E+00 0.000E+00


--------------------------------------------------------------------------------------------------------


    POTLOK:  cpu time    0.0461: real time    0.0463


--------------------------------------------------------------------------------------------------------


     LOOP+:  cpu time   13.5361: real time   13.5959
    4ORBIT:  cpu time    0.0000: real time    0.0000

 total amount of memory used by VASP MPI-rank0    48266. kBytes
=======================================================================

   base      :      30000. kBytes
   nonlr-proj:       1717. kBytes
   fftplans  :       1314. kBytes
   grid      :       3454. kBytes
   one-center:         30. kBytes
   wavefun   :      11751. kBytes
 
  
  
 General timing and accounting informations for this job:
 ========================================================
  
                  Total CPU time used (sec):      100.853
                            User time (sec):       97.545
                          System time (sec):        3.308
                         Elapsed time (sec):      101.933
  
                   Maximum memory used (kb):       80644.
                   Average memory used (kb):           0.
  
                          Minor page faults:        41293
                          Major page faults:            0
                 Voluntary context switches:         4067
