<?xml version="1.0" encoding="ISO-8859-1"?>
<modeling>
 <generator>
  <i name="program" type="string">vasp </i>
  <i name="version" type="string">5.4.4.18Apr17-6-g9f103f2a35  </i>
  <i name="subversion" type="string">(build Oct 03 2018 13:58:34) complex            parallel </i>
  <i name="platform" type="string">LinuxIFC </i>
  <i name="date" type="string">2022 02 07 </i>
  <i name="time" type="string">15:58:44 </i>
 </generator>
 <incar>
  <i type="string" name="SYSTEM"> metal</i>
  <i type="int" name="ISTART">     0</i>
  <i type="string" name="PREC">normal</i>
  <i type="int" name="IALGO">    48</i>
  <i type="int" name="NSIM">     4</i>
  <i type="int" name="ISPIN">     2</i>
  <i type="int" name="NELM">   120</i>
  <i type="int" name="IBRION">    -1</i>
  <i name="EDIFFG">     -0.01000000</i>
  <i type="int" name="NSW">     3</i>
  <i type="int" name="ISIF">     0</i>
  <i type="int" name="ISYM">     2</i>
  <i name="ENCUT">    450.00000000</i>
  <i type="string" name="LREAL">A</i>
  <i type="int" name="ISMEAR">     0</i>
  <i name="SIGMA">      0.05000000</i>
  <i type="logical" name="LWAVE"> F  </i>
  <i type="logical" name="LCHARG"> T  </i>
  <v type="int" name="KPOINT_BSE">    -1     0     0     0</v>
  <i type="int" name="NELM">   120</i>
  <i type="int" name="VOSKOWN">     0</i>
 </incar>
 <structure name="primitive_cell" >
  <crystal>
   <varray name="basis" >
    <v>       4.26620007       0.00000000       0.00000000 </v>
    <v>       0.00000000      39.40950012       0.00000000 </v>
    <v>      -1.42206471       0.00000000       3.18109970 </v>
   </varray>
   <i name="volume">    534.83451311 </i>
   <varray name="rec_basis" >
    <v>       0.23440063       0.00000000       0.10478542 </v>
    <v>       0.00000000       0.02537459       0.00000000 </v>
    <v>       0.00000000       0.00000000       0.31435670 </v>
   </varray>
  </crystal>
  <varray name="positions" >
   <v>      -0.00027365       0.00000783       0.00000000 </v>
   <v>      -0.16675274       0.03122310       0.00000000 </v>
   <v>      -0.16698817      -0.03122806       0.00000000 </v>
   <v>       0.33324726       0.00000789       0.00000000 </v>
   <v>      -0.00010142       0.06246133       0.00000000 </v>
   <v>      -0.00033177      -0.06246764       0.00000000 </v>
   <v>       0.49989858      -0.03123031       0.00000000 </v>
   <v>       0.49972635       0.03122317       0.00000000 </v>
   <v>       0.33301183       0.06245907       0.00000000 </v>
   <v>       0.33324927      -0.06246935       0.00000000 </v>
   <v>      -0.16675073       0.09370033       0.00000000 </v>
   <v>      -0.16673474      -0.09369628       0.00000000 </v>
   <v>       0.49966823       0.09369861       0.00000000 </v>
   <v>       0.49972692      -0.09369434       0.00000000 </v>
   <v>      -0.00027308       0.12492436       0.00000000 </v>
   <v>      -0.00006145      -0.12494449       0.00000000 </v>
   <v>       0.33326526       0.12492629       0.00000000 </v>
   <v>       0.33312972      -0.12494359       0.00000000 </v>
   <v>      -0.16687028       0.15617360       0.00000000 </v>
   <v>      -0.16654271      -0.15619147       0.00000000 </v>
   <v>       0.49993855       0.15617451       0.00000000 </v>
   <v>       0.49968157      -0.15618802       0.00000000 </v>
   <v>      -0.00031843       0.18741802       0.00000000 </v>
   <v>      -0.00023492      -0.18740475       0.00000000 </v>
   <v>       0.33340337      -0.18740214       0.00000000 </v>
   <v>       0.33345729       0.18742148       0.00000000 </v>
   <v>      -0.16659663       0.21863213       0.00000000 </v>
   <v>      -0.16666332      -0.21867082       0.00000000 </v>
   <v>       0.49976508       0.21863473       0.00000000 </v>
   <v>       0.49982960      -0.21866983       0.00000000 </v>
   <v>      -0.00017040       0.24990082       0.00000000 </v>
   <v>      -0.00075831      -0.24994071       0.00000000 </v>
   <v>       0.33333668       0.24990181       0.00000000 </v>
   <v>       0.33390417      -0.24993930       0.00000000 </v>
   <v>      -0.16908599      -0.28091843       0.00000000 </v>
   <v>      -0.16609583       0.28116934       0.00000000 </v>
   <v>      -0.49783527      -0.28091963       0.00000000 </v>
   <v>       0.49924169       0.28117075       0.00000000 </v>
   <v>       0.00011866      -0.31206055       0.00000000 </v>
   <v>       0.00216473       0.31214964       0.00000000 </v>
   <v>       0.33287698      -0.31206124       0.00000000 </v>
   <v>       0.33091401       0.31214843       0.00000000 </v>
   <v>      -0.09591189      -0.34294265       0.00000000 </v>
   <v>      -0.16712302       0.34329222       0.00000000 </v>
   <v>       0.42883310      -0.34294605       0.00000000 </v>
   <v>      -0.49988134       0.34329153       0.00000000 </v>
   <v>      -0.07116696       0.37417703       0.00000000 </v>
   <v>       0.40408709       0.37417364       0.00000000 </v>
  </varray>
 </structure>
 <varray name="primitive_index" >
  <v type="int" >        1 </v>
  <v type="int" >        4 </v>
  <v type="int" >       44 </v>
  <v type="int" >        2 </v>
  <v type="int" >        5 </v>
  <v type="int" >       41 </v>
  <v type="int" >       43 </v>
  <v type="int" >        3 </v>
  <v type="int" >        6 </v>
  <v type="int" >       42 </v>
  <v type="int" >        8 </v>
  <v type="int" >       40 </v>
  <v type="int" >        7 </v>
  <v type="int" >       39 </v>
  <v type="int" >        9 </v>
  <v type="int" >       37 </v>
  <v type="int" >       10 </v>
  <v type="int" >       38 </v>
  <v type="int" >       12 </v>
  <v type="int" >       36 </v>
  <v type="int" >       11 </v>
  <v type="int" >       35 </v>
  <v type="int" >       13 </v>
  <v type="int" >       33 </v>
  <v type="int" >       34 </v>
  <v type="int" >       14 </v>
  <v type="int" >       16 </v>
  <v type="int" >       32 </v>
  <v type="int" >       15 </v>
  <v type="int" >       31 </v>
  <v type="int" >       17 </v>
  <v type="int" >       29 </v>
  <v type="int" >       18 </v>
  <v type="int" >       30 </v>
  <v type="int" >       28 </v>
  <v type="int" >       20 </v>
  <v type="int" >       27 </v>
  <v type="int" >       19 </v>
  <v type="int" >       25 </v>
  <v type="int" >       21 </v>
  <v type="int" >       26 </v>
  <v type="int" >       22 </v>
  <v type="int" >       48 </v>
  <v type="int" >       24 </v>
  <v type="int" >       47 </v>
  <v type="int" >       23 </v>
  <v type="int" >       45 </v>
  <v type="int" >       46 </v>
 </varray>
 <kpoints>
  <generation param="Gamma">
   <v type="int" name="divisions">       6        1        2 </v>
   <v name="usershift">      0.00000000       0.00000000       0.00000000 </v>
   <v name="genvec1">      0.16666667       0.00000000      -0.00000000 </v>
   <v name="genvec2">      0.00000000       1.00000000       0.00000000 </v>
   <v name="genvec3">      0.00000000       0.00000000       0.50000000 </v>
   <v name="shift">      0.00000000       0.00000000       0.00000000 </v>
  </generation>
  <varray name="kpointlist" >
   <v>       0.00000000       0.00000000       0.00000000 </v>
   <v>       0.16666667       0.00000000       0.00000000 </v>
   <v>       0.33333333       0.00000000       0.00000000 </v>
   <v>       0.50000000       0.00000000       0.00000000 </v>
   <v>       0.00000000       0.00000000       0.50000000 </v>
   <v>       0.16666667       0.00000000       0.50000000 </v>
   <v>       0.33333333       0.00000000       0.50000000 </v>
   <v>       0.50000000       0.00000000       0.50000000 </v>
  </varray>
  <varray name="weights" >
   <v>       0.08333333 </v>
   <v>       0.16666667 </v>
   <v>       0.16666667 </v>
   <v>       0.08333333 </v>
   <v>       0.08333333 </v>
   <v>       0.16666667 </v>
   <v>       0.16666667 </v>
   <v>       0.08333333 </v>
  </varray>
 </kpoints>
 <parameters>
  <separator name="general" >
   <i type="string" name="SYSTEM">metal</i>
   <i type="logical" name="LCOMPAT"> F  </i>
  </separator>
  <separator name="electronic" >
   <i type="string" name="PREC">normal</i>
   <i name="ENMAX">    450.00000000</i>
   <i name="ENAUG">    644.87300000</i>
   <i name="EDIFF">      0.00010000</i>
   <i type="int" name="IALGO">    48</i>
   <i type="int" name="IWAVPR">    10</i>
   <i type="int" name="NBANDS">   152</i>
   <i name="NELECT">    200.00000000</i>
   <i type="int" name="TURBO">     0</i>
   <i type="int" name="IRESTART">     0</i>
   <i type="int" name="NREBOOT">     0</i>
   <i type="int" name="NMIN">     0</i>
   <i name="EREF">      0.00000000</i>
   <separator name="electronic smearing" >
    <i type="int" name="ISMEAR">     0</i>
    <i name="SIGMA">      0.05000000</i>
    <i name="KSPACING">      0.50000000</i>
    <i type="logical" name="KGAMMA"> T  </i>
   </separator>
   <separator name="electronic projectors" >
    <i type="logical" name="LREAL"> T  </i>
    <v name="ROPT">     -0.00050000     -0.00050000</v>
    <i type="int" name="LMAXPAW">  -100</i>
    <i type="int" name="LMAXMIX">     2</i>
    <i type="logical" name="NLSPLINE"> F  </i>
   </separator>
   <separator name="electronic startup" >
    <i type="int" name="ISTART">     0</i>
    <i type="int" name="ICHARG">     2</i>
    <i type="int" name="INIWAV">     1</i>
   </separator>
   <separator name="electronic spin" >
    <i type="int" name="ISPIN">     2</i>
    <i type="logical" name="LNONCOLLINEAR"> F  </i>
    <v name="MAGMOM">      1.00000000      1.00000000      1.00000000      1.00000000      1.00000000      1.00000000      1.00000000      1.00000000      1.00000000      1.00000000      1.00000000      1.00000000      1.00000000      1.00000000      1.00000000      1.00000000      1.00000000      1.00000000      1.00000000      1.00000000
      1.00000000      1.00000000      1.00000000      1.00000000      1.00000000      1.00000000      1.00000000      1.00000000      1.00000000      1.00000000      1.00000000      1.00000000      1.00000000      1.00000000      1.00000000      1.00000000      1.00000000      1.00000000      1.00000000      1.00000000
      1.00000000      1.00000000      1.00000000      1.00000000      1.00000000      1.00000000      1.00000000      1.00000000</v>
    <i name="NUPDOWN">     -1.00000000</i>
    <i type="logical" name="LSORBIT"> F  </i>
    <v name="SAXIS">      0.00000000      0.00000000      1.00000000</v>
    <i type="logical" name="LSPIRAL"> F  </i>
    <v name="QSPIRAL">      0.00000000      0.00000000      0.00000000</v>
    <i type="logical" name="LZEROZ"> F  </i>
   </separator>
   <separator name="electronic exchange-correlation" >
    <i type="logical" name="LASPH"> F  </i>
    <i type="logical" name="LMETAGGA"> F  </i>
   </separator>
   <separator name="electronic convergence" >
    <i type="int" name="NELM">   120</i>
    <i type="int" name="NELMDL">   -12</i>
    <i type="int" name="NELMIN">     2</i>
    <i name="ENINI">    450.00000000</i>
    <separator name="electronic convergence detail" >
     <i type="logical" name="LDIAG"> T  </i>
     <i type="logical" name="LSUBROT"> F  </i>
     <i name="WEIMIN">      0.00000000</i>
     <i name="EBREAK">      0.00000016</i>
     <i name="DEPER">      0.30000000</i>
     <i type="int" name="NRMM">     4</i>
     <i name="TIME">      0.40000000</i>
    </separator>
   </separator>
   <separator name="electronic mixer" >
    <i name="AMIX">      0.40000000</i>
    <i name="BMIX">      1.00000000</i>
    <i name="AMIN">      0.10000000</i>
    <i name="AMIX_MAG">      1.60000000</i>
    <i name="BMIX_MAG">      1.00000000</i>
    <separator name="electronic mixer details" >
     <i type="int" name="IMIX">     4</i>
     <i type="logical" name="MIXFIRST"> F  </i>
     <i type="int" name="MAXMIX">   -45</i>
     <i name="WC">    100.00000000</i>
     <i type="int" name="INIMIX">     1</i>
     <i type="int" name="MIXPRE">     1</i>
     <i type="int" name="MREMOVE">     5</i>
    </separator>
   </separator>
   <separator name="electronic dipolcorrection" >
    <i type="logical" name="LDIPOL"> F  </i>
    <i type="logical" name="LMONO"> F  </i>
    <i type="int" name="IDIPOL">     0</i>
    <i name="EPSILON">      1.00000000</i>
    <v name="DIPOL">   -100.00000000   -100.00000000   -100.00000000</v>
    <i name="EFIELD">      0.00000000</i>
   </separator>
  </separator>
  <separator name="grids" >
   <i type="int" name="NGX">    24</i>
   <i type="int" name="NGY">   210</i>
   <i type="int" name="NGZ">    18</i>
   <i type="int" name="NGXF">    48</i>
   <i type="int" name="NGYF">   420</i>
   <i type="int" name="NGZF">    36</i>
   <i type="logical" name="ADDGRID"> F  </i>
  </separator>
  <separator name="ionic" >
   <i type="int" name="NSW">     3</i>
   <i type="int" name="IBRION">    -1</i>
   <i type="int" name="MDALGO">     0</i>
   <i type="int" name="ISIF">     0</i>
   <i name="PSTRESS">      0.00000000</i>
   <i name="EDIFFG">     -0.01000000</i>
   <i type="int" name="NFREE">     0</i>
   <i name="POTIM">      0.50000000</i>
   <i name="SMASS">     -3.00000000</i>
   <i name="SCALEE">      1.00000000</i>
  </separator>
  <separator name="ionic md" >
   <i name="TEBEG">      0.00010000</i>
   <i name="TEEND">      0.00010000</i>
   <i type="int" name="NBLOCK">     1</i>
   <i type="int" name="KBLOCK">     3</i>
   <i type="int" name="NPACO">   256</i>
   <i name="APACO">     16.00000000</i>
  </separator>
  <separator name="symmetry" >
   <i type="int" name="ISYM">     2</i>
   <i name="SYMPREC">      0.00001000</i>
  </separator>
  <separator name="dos" >
   <i type="int" name="LORBIT">     0</i>
   <v name="RWIGS">     -1.00000000     -1.00000000</v>
   <i type="int" name="NEDOS">   301</i>
   <i name="EMIN">     10.00000000</i>
   <i name="EMAX">    -10.00000000</i>
   <i name="EFERMI">      0.00000000</i>
  </separator>
  <separator name="writing" >
   <i type="int" name="NWRITE">     2</i>
   <i type="logical" name="LWAVE"> F  </i>
   <i type="logical" name="LDOWNSAMPLE"> F  </i>
   <i type="logical" name="LCHARG"> T  </i>
   <i type="logical" name="LPARD"> F  </i>
   <i type="logical" name="LVTOT"> F  </i>
   <i type="logical" name="LVHAR"> F  </i>
   <i type="logical" name="LELF"> F  </i>
   <i type="logical" name="LOPTICS"> F  </i>
   <v name="STM">      0.00000000      0.00000000      0.00000000      0.00000000      0.00000000      0.00000000      0.00000000</v>
  </separator>
  <separator name="performance" >
   <i type="int" name="NPAR">     4</i>
   <i type="int" name="NSIM">     4</i>
   <i type="int" name="NBLK">    -1</i>
   <i type="logical" name="LPLANE"> T  </i>
   <i type="logical" name="LSCALAPACK"> T  </i>
   <i type="logical" name="LSCAAWARE"> F  </i>
   <i type="logical" name="LSCALU"> F  </i>
   <i type="logical" name="LASYNC"> F  </i>
   <i type="logical" name="LORBITALREAL"> F  </i>
  </separator>
  <separator name="miscellaneous" >
   <i type="int" name="IDIOT">     3</i>
   <i type="int" name="ISPECIAL">     0</i>
   <i type="logical" name="LMUSIC"> F  </i>
   <v name="POMASS">     12.01100000     16.00000000</v>
   <v name="DARWINR">      0.00000000      0.00000000</v>
   <v name="DARWINV">      1.00000000      1.00000000</v>
   <i type="logical" name="LCORR"> T  </i>
  </separator>
  <i type="logical" name="GGA_COMPAT"> T  </i>
  <i type="logical" name="LBERRY"> F  </i>
  <i type="int" name="ICORELEVEL">     0</i>
  <i type="logical" name="LDAU"> F  </i>
  <i type="int" name="I_CONSTRAINED_M">     0</i>
  <separator name="electronic exchange-correlation" >
   <i type="string" name="GGA">--</i>
   <i type="int" name="VOSKOWN">     0</i>
   <i type="logical" name="LHFCALC"> F  </i>
   <i type="string" name="PRECFOCK"></i>
   <i type="logical" name="LSYMGRAD"> F  </i>
   <i type="logical" name="LHFONE"> F  </i>
   <i type="logical" name="LRHFCALC"> F  </i>
   <i type="logical" name="LTHOMAS"> F  </i>
   <i type="logical" name="LMODELHF"> F  </i>
   <i name="ENCUT4O">     -1.00000000</i>
   <i type="int" name="EXXOEP">     0</i>
   <i type="int" name="FOURORBIT">     0</i>
   <i name="AEXX">      0.00000000</i>
   <i name="HFALPHA">      0.00000000</i>
   <i name="MCALPHA">      0.00000000</i>
   <i name="ALDAX">      1.00000000</i>
   <i name="AGGAX">      1.00000000</i>
   <i name="ALDAC">      1.00000000</i>
   <i name="AGGAC">      1.00000000</i>
   <i type="int" name="NKREDX">     1</i>
   <i type="int" name="NKREDY">     1</i>
   <i type="int" name="NKREDZ">     1</i>
   <i type="logical" name="SHIFTRED"> F  </i>
   <i type="logical" name="ODDONLY"> F  </i>
   <i type="logical" name="EVENONLY"> F  </i>
   <i type="int" name="LMAXFOCK">     0</i>
   <i type="int" name="NMAXFOCKAE">     0</i>
   <i type="logical" name="LFOCKAEDFT"> F  </i>
   <i name="HFSCREEN">      0.00000000</i>
   <i name="HFSCREENC">      0.00000000</i>
   <i type="int" name="NBANDSGWLOW">     0</i>
  </separator>
  <separator name="vdW DFT" >
   <i type="logical" name="LUSE_VDW"> F  </i>
   <i name="Zab_VDW">     -0.84910000</i>
   <i name="PARAM1">      0.12340000</i>
   <i name="PARAM2">      1.00000000</i>
   <i name="PARAM3">      0.00000000</i>
  </separator>
  <separator name="model GW" >
   <i type="int" name="MODEL_GW">     0</i>
   <i name="MODEL_EPS0">      6.68543141</i>
   <i name="MODEL_ALPHA">      1.00000000</i>
  </separator>
  <separator name="linear response parameters" >
   <i type="logical" name="LEPSILON"> F  </i>
   <i type="logical" name="LRPA"> F  </i>
   <i type="logical" name="LNABLA"> F  </i>
   <i type="logical" name="LVEL"> F  </i>
   <i type="int" name="KINTER">     0</i>
   <i name="CSHIFT">      0.10000000</i>
   <i name="OMEGAMAX">     -1.00000000</i>
   <i name="DEG_THRESHOLD">      0.00200000</i>
   <i name="RTIME">     -0.10000000</i>
   <i name="WPLASMAI">      0.00000000</i>
   <v name="DFIELD">      0.00000000      0.00000000      0.00000000</v>
   <v name="WPLASMA">      0.00000000      0.00000000      0.00000000      0.00000000      0.00000000      0.00000000      0.00000000      0.00000000      0.00000000</v>
  </separator>
  <separator name="orbital magnetization" >
   <i type="logical" name="NUCIND"> F  </i>
   <v name="MAGPOS">      0.00000000      0.00000000      0.00000000</v>
   <i type="logical" name="LNICSALL"> T  </i>
   <i type="logical" name="ORBITALMAG"> F  </i>
   <i type="logical" name="LMAGBLOCH"> F  </i>
   <i type="logical" name="LCHIMAG"> F  </i>
   <i type="logical" name="LGAUGE"> T  </i>
   <i type="int" name="MAGATOM">     0</i>
   <v name="MAGDIPOL">      0.00000000      0.00000000      0.00000000</v>
   <v name="AVECCONST">      0.00000000      0.00000000      0.00000000</v>
  </separator>
  <separator name="response functions" >
   <i type="logical" name="LADDER"> F  </i>
   <i type="logical" name="LRPAFORCE"> F  </i>
   <i type="logical" name="LFXC"> F  </i>
   <i type="logical" name="LHARTREE"> T  </i>
   <i type="int" name="IBSE">     0</i>
   <v type="int" name="KPOINT">    -1     0     0     0</v>
   <i type="logical" name="LTCTE"> F  </i>
   <i type="logical" name="LTETE"> F  </i>
   <i type="logical" name="LTRIPLET"> F  </i>
   <i type="logical" name="LFXCEPS"> F  </i>
   <i type="logical" name="LFXHEG"> F  </i>
   <i type="int" name="NATURALO">     2</i>
   <i type="logical" name="L2ORDER"> F  </i>
   <i type="logical" name="LMP2LT"> F  </i>
   <i type="logical" name="LUSEW"> F  </i>
   <i name="ENCUTGW">     -2.00000000</i>
   <i name="ENCUTGWSOFT">     -2.00000000</i>
   <i name="ENCUTLF">     -1.00000000</i>
   <i type="int" name="LMAXMP2">    -1</i>
   <i name="SCISSOR">      0.00000000</i>
   <i type="int" name="NOMEGA">     0</i>
   <i type="int" name="NOMEGAR">     0</i>
   <i type="int" name="NBANDSGW">    -1</i>
   <i type="int" name="NBANDSO">    -1</i>
   <i type="int" name="NBANDSV">    -1</i>
   <i type="int" name="NELM">   120</i>
   <i type="int" name="NELMHF">     1</i>
   <i type="int" name="DIM">     3</i>
   <i type="int" name="ANTIRES">     0</i>
   <i name="OMEGAMAX">    -30.00000000</i>
   <i name="OMEGAMIN">    -30.00000000</i>
   <i name="OMEGATL">   -200.00000000</i>
   <i type="int" name="OMEGAGRID">   140</i>
   <i name="CSHIFT">     -0.10000000</i>
   <i type="logical" name="SELFENERGY"> F  </i>
   <i type="logical" name="LSPECTRAL"> F  </i>
   <i type="logical" name="LSPECTRALGW"> F  </i>
   <i type="logical" name="LSINGLES"> F  </i>
   <i type="logical" name="LFERMIGW"> F  </i>
   <i type="logical" name="ODDONLYGW"> F  </i>
   <i type="logical" name="EVENONLYGW"> F  </i>
   <i type="int" name="NKREDLFX">     1</i>
   <i type="int" name="NKREDLFY">     1</i>
   <i type="int" name="NKREDLFZ">     1</i>
   <i type="int" name="MAXMEM">  2800</i>
   <i type="int" name="TELESCOPE">     0</i>
   <i type="int" name="TAUPAR">     1</i>
   <i type="int" name="OMEGAPAR">    -1</i>
   <i name="LAMBDA">      1.00000000</i>
  </separator>
  <separator name="External order field" >
   <i name="OFIELD_KAPPA">      0.00000000</i>
   <v name="OFIELD_K">      0.00000000      0.00000000      0.00000000</v>
   <i name="OFIELD_Q6_NEAR">      0.00000000</i>
   <i name="OFIELD_Q6_FAR">      0.00000000</i>
   <i name="OFIELD_A">      0.00000000</i>
  </separator>
 </parameters>
 <atominfo>
  <atoms>      48 </atoms>
  <types>       2 </types>
  <array name="atoms" >
   <dimension dim="1">ion</dimension>
   <field type="string">element</field>
   <field type="int">atomtype</field>
   <set>
    <rc><c>C </c><c>   1</c></rc>
    <rc><c>C </c><c>   1</c></rc>
    <rc><c>C </c><c>   1</c></rc>
    <rc><c>C </c><c>   1</c></rc>
    <rc><c>C </c><c>   1</c></rc>
    <rc><c>C </c><c>   1</c></rc>
    <rc><c>C </c><c>   1</c></rc>
    <rc><c>C </c><c>   1</c></rc>
    <rc><c>C </c><c>   1</c></rc>
    <rc><c>C </c><c>   1</c></rc>
    <rc><c>C </c><c>   1</c></rc>
    <rc><c>C </c><c>   1</c></rc>
    <rc><c>C </c><c>   1</c></rc>
    <rc><c>C </c><c>   1</c></rc>
    <rc><c>C </c><c>   1</c></rc>
    <rc><c>C </c><c>   1</c></rc>
    <rc><c>C </c><c>   1</c></rc>
    <rc><c>C </c><c>   1</c></rc>
    <rc><c>C </c><c>   1</c></rc>
    <rc><c>C </c><c>   1</c></rc>
    <rc><c>C </c><c>   1</c></rc>
    <rc><c>C </c><c>   1</c></rc>
    <rc><c>C </c><c>   1</c></rc>
    <rc><c>C </c><c>   1</c></rc>
    <rc><c>C </c><c>   1</c></rc>
    <rc><c>C </c><c>   1</c></rc>
    <rc><c>C </c><c>   1</c></rc>
    <rc><c>C </c><c>   1</c></rc>
    <rc><c>C </c><c>   1</c></rc>
    <rc><c>C </c><c>   1</c></rc>
    <rc><c>C </c><c>   1</c></rc>
    <rc><c>C </c><c>   1</c></rc>
    <rc><c>C </c><c>   1</c></rc>
    <rc><c>C </c><c>   1</c></rc>
    <rc><c>C </c><c>   1</c></rc>
    <rc><c>C </c><c>   1</c></rc>
    <rc><c>C </c><c>   1</c></rc>
    <rc><c>C </c><c>   1</c></rc>
    <rc><c>C </c><c>   1</c></rc>
    <rc><c>C </c><c>   1</c></rc>
    <rc><c>C </c><c>   1</c></rc>
    <rc><c>C </c><c>   1</c></rc>
    <rc><c>C </c><c>   1</c></rc>
    <rc><c>C </c><c>   1</c></rc>
    <rc><c>O </c><c>   2</c></rc>
    <rc><c>O </c><c>   2</c></rc>
    <rc><c>O </c><c>   2</c></rc>
    <rc><c>O </c><c>   2</c></rc>
   </set>
  </array>
  <array name="atomtypes" >
   <dimension dim="1">type</dimension>
   <field type="int">atomspertype</field>
   <field type="string">element</field>
   <field>mass</field>
   <field>valence</field>
   <field type="string">pseudopotential</field>
   <set>
    <rc><c>  44</c><c>C </c><c>     12.01100000</c><c>      4.00000000</c><c>  PAW_PBE C 08Apr2002                   </c></rc>
    <rc><c>   4</c><c>O </c><c>     16.00000000</c><c>      6.00000000</c><c>  PAW_PBE O 08Apr2002                   </c></rc>
   </set>
  </array>
 </atominfo>
 <structure name="initialpos" >
  <crystal>
   <varray name="basis" >
    <v>       4.26620007       0.00000000       0.00000000 </v>
    <v>       0.00000000      39.40950012       0.00000000 </v>
    <v>      -1.42206471       0.00000000       3.18109970 </v>
   </varray>
   <i name="volume">    534.83451311 </i>
   <varray name="rec_basis" >
    <v>       0.23440063       0.00000000       0.10478542 </v>
    <v>       0.00000000       0.02537459       0.00000000 </v>
    <v>       0.00000000       0.00000000       0.31435670 </v>
   </varray>
  </crystal>
  <varray name="positions" >
   <v>       0.99972635       0.00000783       0.00000000 </v>
   <v>       0.33324726       0.00000789       0.00000000 </v>
   <v>       0.49972635       0.03122317       0.00000000 </v>
   <v>       0.83324726       0.03122310       0.00000000 </v>
   <v>       0.99989858       0.06246133       0.00000000 </v>
   <v>       0.33301183       0.06245907       0.00000000 </v>
   <v>       0.49966823       0.09369861       0.00000000 </v>
   <v>       0.83324927       0.09370033       0.00000000 </v>
   <v>       0.99972692       0.12492436       0.00000000 </v>
   <v>       0.33326526       0.12492629       0.00000000 </v>
   <v>       0.49993855       0.15617451       0.00000000 </v>
   <v>       0.83312972       0.15617360       0.00000000 </v>
   <v>       0.99968157       0.18741802       0.00000000 </v>
   <v>       0.33345729       0.18742148       0.00000000 </v>
   <v>       0.49976508       0.21863473       0.00000000 </v>
   <v>       0.83340337       0.21863213       0.00000000 </v>
   <v>       0.99982960       0.24990082       0.00000000 </v>
   <v>       0.33333668       0.24990181       0.00000000 </v>
   <v>       0.49924169       0.28117075       0.00000000 </v>
   <v>       0.83390417       0.28116934       0.00000000 </v>
   <v>       0.00216473       0.31214964       0.00000000 </v>
   <v>       0.33091401       0.31214843       0.00000000 </v>
   <v>       0.50011866       0.34329153       0.00000000 </v>
   <v>       0.83287698       0.34329222       0.00000000 </v>
   <v>       0.00011866       0.68793945       0.00000000 </v>
   <v>       0.33287698       0.68793876       0.00000000 </v>
   <v>       0.50216473       0.71908037       0.00000000 </v>
   <v>       0.83091401       0.71908157       0.00000000 </v>
   <v>       0.99924169       0.75005929       0.00000000 </v>
   <v>       0.33390417       0.75006070       0.00000000 </v>
   <v>       0.49982960       0.78133017       0.00000000 </v>
   <v>       0.83333668       0.78132918       0.00000000 </v>
   <v>       0.99976508       0.81259525       0.00000000 </v>
   <v>       0.33340337       0.81259786       0.00000000 </v>
   <v>       0.49968157       0.84381198       0.00000000 </v>
   <v>       0.83345729       0.84380853       0.00000000 </v>
   <v>       0.99993855       0.87505551       0.00000000 </v>
   <v>       0.33312972       0.87505641       0.00000000 </v>
   <v>       0.49972692       0.90630566       0.00000000 </v>
   <v>       0.83326526       0.90630372       0.00000000 </v>
   <v>       0.99966823       0.93753236       0.00000000 </v>
   <v>       0.33324927       0.93753065       0.00000000 </v>
   <v>       0.49989858       0.96876969       0.00000000 </v>
   <v>       0.83301183       0.96877194       0.00000000 </v>
   <v>       0.92883304       0.37417703       0.00000000 </v>
   <v>       0.40408709       0.37417364       0.00000000 </v>
   <v>       0.42883310       0.65705395       0.00000000 </v>
   <v>       0.90408811       0.65705735       0.00000000 </v>
  </varray>
  <varray name="selective"  type="logical" >
   <v type="logical" >  T  T  F </v>
   <v type="logical" >  T  T  F </v>
   <v type="logical" >  T  T  F </v>
   <v type="logical" >  T  T  F </v>
   <v type="logical" >  T  T  F </v>
   <v type="logical" >  T  T  F </v>
   <v type="logical" >  T  T  F </v>
   <v type="logical" >  T  T  F </v>
   <v type="logical" >  T  T  F </v>
   <v type="logical" >  T  T  F </v>
   <v type="logical" >  T  T  F </v>
   <v type="logical" >  T  T  F </v>
   <v type="logical" >  T  T  F </v>
   <v type="logical" >  T  T  F </v>
   <v type="logical" >  T  T  F </v>
   <v type="logical" >  T  T  F </v>
   <v type="logical" >  T  T  F </v>
   <v type="logical" >  T  T  F </v>
   <v type="logical" >  T  T  F </v>
   <v type="logical" >  T  T  F </v>
   <v type="logical" >  T  T  F </v>
   <v type="logical" >  T  T  F </v>
   <v type="logical" >  T  T  F </v>
   <v type="logical" >  T  T  F </v>
   <v type="logical" >  T  T  F </v>
   <v type="logical" >  T  T  F </v>
   <v type="logical" >  T  T  F </v>
   <v type="logical" >  T  T  F </v>
   <v type="logical" >  T  T  F </v>
   <v type="logical" >  T  T  F </v>
   <v type="logical" >  T  T  F </v>
   <v type="logical" >  T  T  F </v>
   <v type="logical" >  T  T  F </v>
   <v type="logical" >  T  T  F </v>
   <v type="logical" >  T  T  F </v>
   <v type="logical" >  T  T  F </v>
   <v type="logical" >  T  T  F </v>
   <v type="logical" >  T  T  F </v>
   <v type="logical" >  T  T  F </v>
   <v type="logical" >  T  T  F </v>
   <v type="logical" >  T  T  F </v>
   <v type="logical" >  T  T  F </v>
   <v type="logical" >  T  T  F </v>
   <v type="logical" >  T  T  F </v>
   <v type="logical" >  T  T  F </v>
   <v type="logical" >  T  T  F </v>
   <v type="logical" >  T  T  F </v>
   <v type="logical" >  T  T  F </v>
  </varray>
  <varray name="velocities" >
   <v>       0.00000000       0.00000000       0.00000000 </v>
   <v>       0.00000000       0.00000000       0.00000000 </v>
   <v>       0.00000000       0.00000000       0.00000000 </v>
   <v>       0.00000000       0.00000000       0.00000000 </v>
   <v>       0.00000000       0.00000000       0.00000000 </v>
   <v>       0.00000000       0.00000000       0.00000000 </v>
   <v>       0.00000000       0.00000000       0.00000000 </v>
   <v>       0.00000000       0.00000000       0.00000000 </v>
   <v>       0.00000000       0.00000000       0.00000000 </v>
   <v>       0.00000000       0.00000000       0.00000000 </v>
   <v>       0.00000000       0.00000000       0.00000000 </v>
   <v>       0.00000000       0.00000000       0.00000000 </v>
   <v>       0.00000000       0.00000000       0.00000000 </v>
   <v>       0.00000000       0.00000000       0.00000000 </v>
   <v>       0.00000000       0.00000000       0.00000000 </v>
   <v>       0.00000000       0.00000000       0.00000000 </v>
   <v>       0.00000000       0.00000000       0.00000000 </v>
   <v>       0.00000000       0.00000000       0.00000000 </v>
   <v>       0.00000000       0.00000000       0.00000000 </v>
   <v>       0.00000000       0.00000000       0.00000000 </v>
   <v>       0.00000000       0.00000000       0.00000000 </v>
   <v>       0.00000000       0.00000000       0.00000000 </v>
   <v>       0.00000000       0.00000000       0.00000000 </v>
   <v>       0.00000000       0.00000000       0.00000000 </v>
   <v>       0.00000000       0.00000000       0.00000000 </v>
   <v>       0.00000000       0.00000000       0.00000000 </v>
   <v>       0.00000000       0.00000000       0.00000000 </v>
   <v>       0.00000000       0.00000000       0.00000000 </v>
   <v>       0.00000000       0.00000000       0.00000000 </v>
   <v>       0.00000000       0.00000000       0.00000000 </v>
   <v>       0.00000000       0.00000000       0.00000000 </v>
   <v>       0.00000000       0.00000000       0.00000000 </v>
   <v>       0.00000000       0.00000000       0.00000000 </v>
   <v>       0.00000000       0.00000000       0.00000000 </v>
   <v>       0.00000000       0.00000000       0.00000000 </v>
   <v>       0.00000000       0.00000000       0.00000000 </v>
   <v>       0.00000000       0.00000000       0.00000000 </v>
   <v>       0.00000000       0.00000000       0.00000000 </v>
   <v>       0.00000000       0.00000000       0.00000000 </v>
   <v>       0.00000000       0.00000000       0.00000000 </v>
   <v>       0.00000000       0.00000000       0.00000000 </v>
   <v>       0.00000000       0.00000000       0.00000000 </v>
   <v>       0.00000000       0.00000000       0.00000000 </v>
   <v>       0.00000000       0.00000000       0.00000000 </v>
   <v>       0.00000000       0.00000000       0.00000000 </v>
   <v>       0.00000000       0.00000000       0.00000000 </v>
   <v>       0.00000000       0.00000000       0.00000000 </v>
   <v>       0.00000000       0.00000000       0.00000000 </v>
  </varray>
  <nose>
   <v>      -3.00000000       0.00000000       0.00010000       0.00010000 </v>
  </nose>
 </structure>
 <calculation>
  <scstep>
   <time name="diag">    0.52    0.53</time>
   <time name="diis">    0.67    0.68</time>
   <time name="orth">    0.08    0.09</time>
   <time name="total">    1.33    1.36</time>
   <energy>
    <i name="alphaZ">    372.54520999 </i>
    <i name="ewald">  38165.18647767 </i>
    <i name="hartreedc"> -46010.75833635 </i>
    <i name="XCdc">    702.62007813 </i>
    <i name="pawpsdc">   6154.95120234 </i>
    <i name="pawaedc">  -6186.79106147 </i>
    <i name="eentropy">     -0.00590347 </i>
    <i name="bandstr">    769.24144365 </i>
    <i name="atom">   8203.71208324 </i>
    <i name="e_fr_energy">   2170.70119373 </i>
    <i name="e_wo_entrp">   2170.70709721 </i>
    <i name="e_0_energy">   2170.70414547 </i>
   </energy>
  </scstep>
  <scstep>
   <time name="diag">    0.52    0.53</time>
   <time name="diis">    0.68    0.68</time>
   <time name="orth">    0.08    0.09</time>
   <time name="total">    1.29    1.29</time>
   <energy>
    <i name="e_fr_energy">    441.81505794 </i>
    <i name="e_wo_entrp">    441.82339895 </i>
    <i name="e_0_energy">    441.81922844 </i>
   </energy>
  </scstep>
  <scstep>
   <time name="diag">    0.51    0.51</time>
   <time name="diis">    0.67    0.67</time>
   <time name="orth">    0.08    0.08</time>
   <time name="total">    1.27    1.27</time>
   <energy>
    <i name="e_fr_energy">   -145.93931191 </i>
    <i name="e_wo_entrp">   -145.93303039 </i>
    <i name="e_0_energy">   -145.93617115 </i>
   </energy>
  </scstep>
  <scstep>
   <time name="diag">    0.51    0.51</time>
   <time name="diis">    0.68    0.69</time>
   <time name="orth">    0.09    0.09</time>
   <time name="total">    1.28    1.29</time>
   <energy>
    <i name="e_fr_energy">   -349.84406621 </i>
    <i name="e_wo_entrp">   -349.84187418 </i>
    <i name="e_0_energy">   -349.84297019 </i>
   </energy>
  </scstep>
  <scstep>
   <time name="diag">    0.51    0.51</time>
   <time name="diis">    0.67    0.67</time>
   <time name="orth">    0.08    0.08</time>
   <time name="total">    1.27    1.27</time>
   <energy>
    <i name="e_fr_energy">   -404.59308823 </i>
    <i name="e_wo_entrp">   -404.59077290 </i>
    <i name="e_0_energy">   -404.59193057 </i>
   </energy>
  </scstep>
  <scstep>
   <time name="diag">    0.51    0.51</time>
   <time name="diis">    0.67    0.67</time>
   <time name="orth">    0.08    0.08</time>
   <time name="total">    1.26    1.27</time>
   <energy>
    <i name="e_fr_energy">   -422.58191198 </i>
    <i name="e_wo_entrp">   -422.58111578 </i>
    <i name="e_0_energy">   -422.58151388 </i>
   </energy>
  </scstep>
  <scstep>
   <time name="diag">    0.52    0.53</time>
   <time name="diis">    0.69    0.70</time>
   <time name="orth">    0.09    0.09</time>
   <time name="total">    1.30    1.31</time>
   <energy>
    <i name="e_fr_energy">   -428.60391176 </i>
    <i name="e_wo_entrp">   -428.60005991 </i>
    <i name="e_0_energy">   -428.60198583 </i>
   </energy>
  </scstep>
  <scstep>
   <time name="diag">    0.51    0.51</time>
   <time name="diis">    0.69    0.69</time>
   <time name="orth">    0.09    0.09</time>
   <time name="total">    1.28    1.29</time>
   <energy>
    <i name="e_fr_energy">   -430.91789505 </i>
    <i name="e_wo_entrp">   -430.91511907 </i>
    <i name="e_0_energy">   -430.91650706 </i>
   </energy>
  </scstep>
  <scstep>
   <time name="diag">    0.52    0.52</time>
   <time name="diis">    1.59    1.61</time>
   <time name="orth">    0.08    0.08</time>
   <time name="total">    2.19    2.22</time>
   <energy>
    <i name="e_fr_energy">   -432.33617826 </i>
    <i name="e_wo_entrp">   -432.33220399 </i>
    <i name="e_0_energy">   -432.33419113 </i>
   </energy>
  </scstep>
  <scstep>
   <time name="diag">    0.54    0.55</time>
   <time name="diis">    1.94    1.97</time>
   <time name="orth">    0.09    0.09</time>
   <time name="total">    2.57    2.61</time>
   <energy>
    <i name="e_fr_energy">   -432.46392425 </i>
    <i name="e_wo_entrp">   -432.45974920 </i>
    <i name="e_0_energy">   -432.46183673 </i>
   </energy>
  </scstep>
  <scstep>
   <time name="diag">    0.51    0.51</time>
   <time name="diis">    1.63    1.63</time>
   <time name="orth">    0.08    0.08</time>
   <time name="total">    2.22    2.23</time>
   <energy>
    <i name="e_fr_energy">   -432.46688453 </i>
    <i name="e_wo_entrp">   -432.46270609 </i>
    <i name="e_0_energy">   -432.46479531 </i>
   </energy>
  </scstep>
  <scstep>
   <time name="diag">    0.51    0.51</time>
   <time name="diis">    1.39    1.39</time>
   <time name="orth">    0.08    0.08</time>
   <time name="total">    2.09    2.10</time>
   <energy>
    <i name="e_fr_energy">   -432.46732122 </i>
    <i name="e_wo_entrp">   -432.46314272 </i>
    <i name="e_0_energy">   -432.46523197 </i>
   </energy>
  </scstep>
  <scstep>
   <time name="diag">    0.54    0.54</time>
   <time name="diis">    1.30    1.31</time>
   <time name="orth">    0.09    0.09</time>
   <time name="total">    2.08    2.09</time>
   <energy>
    <i name="e_fr_energy">   -306.54305766 </i>
    <i name="e_wo_entrp">   -306.53374236 </i>
    <i name="e_0_energy">   -306.53840001 </i>
   </energy>
  </scstep>
  <scstep>
   <time name="diag">    0.51    0.51</time>
   <time name="diis">    1.43    1.44</time>
   <time name="orth">    0.08    0.08</time>
   <time name="total">    2.18    2.19</time>
   <energy>
    <i name="e_fr_energy">   -295.18749672 </i>
    <i name="e_wo_entrp">   -295.18170253 </i>
    <i name="e_0_energy">   -295.18459962 </i>
   </energy>
  </scstep>
  <scstep>
   <time name="diag">    0.52    0.52</time>
   <time name="diis">    1.48    1.49</time>
   <time name="orth">    0.09    0.09</time>
   <time name="total">    2.24    2.26</time>
   <energy>
    <i name="e_fr_energy">   -322.45254524 </i>
    <i name="e_wo_entrp">   -322.44171145 </i>
    <i name="e_0_energy">   -322.44712835 </i>
   </energy>
  </scstep>
  <scstep>
   <time name="diag">    0.52    0.52</time>
   <time name="diis">    1.38    1.38</time>
   <time name="orth">    0.09    0.09</time>
   <time name="total">    2.14    2.15</time>
   <energy>
    <i name="e_fr_energy">   -267.14699754 </i>
    <i name="e_wo_entrp">   -267.14284946 </i>
    <i name="e_0_energy">   -267.14492350 </i>
   </energy>
  </scstep>
  <scstep>
   <time name="diag">    0.52    0.53</time>
   <time name="diis">    1.40    1.41</time>
   <time name="orth">    0.08    0.08</time>
   <time name="total">    2.18    2.19</time>
   <energy>
    <i name="e_fr_energy">   -267.64454964 </i>
    <i name="e_wo_entrp">   -267.63452185 </i>
    <i name="e_0_energy">   -267.63953575 </i>
   </energy>
  </scstep>
  <scstep>
   <time name="diag">    0.51    0.51</time>
   <time name="diis">    1.38    1.38</time>
   <time name="orth">    0.09    0.09</time>
   <time name="total">    2.13    2.13</time>
   <energy>
    <i name="e_fr_energy">   -276.36370087 </i>
    <i name="e_wo_entrp">   -276.35026873 </i>
    <i name="e_0_energy">   -276.35698480 </i>
   </energy>
  </scstep>
  <scstep>
   <time name="diag">    0.50    0.51</time>
   <time name="diis">    1.41    1.41</time>
   <time name="orth">    0.09    0.09</time>
   <time name="total">    2.15    2.16</time>
   <energy>
    <i name="e_fr_energy">   -278.12065952 </i>
    <i name="e_wo_entrp">   -278.10598997 </i>
    <i name="e_0_energy">   -278.11332474 </i>
   </energy>
  </scstep>
  <scstep>
   <time name="diag">    0.50    0.50</time>
   <time name="diis">    1.32    1.32</time>
   <time name="orth">    0.08    0.08</time>
   <time name="total">    2.06    2.07</time>
   <energy>
    <i name="e_fr_energy">   -326.48265632 </i>
    <i name="e_wo_entrp">   -326.46863513 </i>
    <i name="e_0_energy">   -326.47564572 </i>
   </energy>
  </scstep>
  <scstep>
   <time name="diag">    0.50    0.51</time>
   <time name="diis">    1.34    1.34</time>
   <time name="orth">    0.09    0.09</time>
   <time name="total">    2.08    2.09</time>
   <energy>
    <i name="e_fr_energy">   -366.62663011 </i>
    <i name="e_wo_entrp">   -366.61586884 </i>
    <i name="e_0_energy">   -366.62124948 </i>
   </energy>
  </scstep>
  <scstep>
   <time name="diag">    0.51    0.51</time>
   <time name="diis">    1.41    1.41</time>
   <time name="orth">    0.09    0.09</time>
   <time name="total">    2.16    2.16</time>
   <energy>
    <i name="e_fr_energy">   -374.83070162 </i>
    <i name="e_wo_entrp">   -374.81751709 </i>
    <i name="e_0_energy">   -374.82410935 </i>
   </energy>
  </scstep>
  <scstep>
   <time name="diag">    0.50    0.50</time>
   <time name="diis">    1.27    1.28</time>
   <time name="orth">    0.08    0.08</time>
   <time name="total">    2.02    2.02</time>
   <energy>
    <i name="e_fr_energy">   -402.62566807 </i>
    <i name="e_wo_entrp">   -402.61034653 </i>
    <i name="e_0_energy">   -402.61800730 </i>
   </energy>
  </scstep>
  <scstep>
   <time name="diag">    0.50    0.50</time>
   <time name="diis">    1.32    1.34</time>
   <time name="orth">    0.08    0.08</time>
   <time name="total">    2.07    2.08</time>
   <energy>
    <i name="e_fr_energy">   -413.40828113 </i>
    <i name="e_wo_entrp">   -413.38476158 </i>
    <i name="e_0_energy">   -413.39652135 </i>
   </energy>
  </scstep>
  <scstep>
   <time name="diag">    0.51    0.51</time>
   <time name="diis">    1.38    1.39</time>
   <time name="orth">    0.08    0.08</time>
   <time name="total">    2.13    2.14</time>
   <energy>
    <i name="e_fr_energy">   -417.19289201 </i>
    <i name="e_wo_entrp">   -417.18471105 </i>
    <i name="e_0_energy">   -417.18880153 </i>
   </energy>
  </scstep>
  <scstep>
   <time name="diag">    0.50    0.51</time>
   <time name="diis">    1.40    1.40</time>
   <time name="orth">    0.09    0.09</time>
   <time name="total">    2.14    2.15</time>
   <energy>
    <i name="e_fr_energy">   -420.16933187 </i>
    <i name="e_wo_entrp">   -420.15508572 </i>
    <i name="e_0_energy">   -420.16220879 </i>
   </energy>
  </scstep>
  <scstep>
   <time name="diag">    0.51    0.51</time>
   <time name="diis">    1.38    1.38</time>
   <time name="orth">    0.09    0.09</time>
   <time name="total">    2.13    2.13</time>
   <energy>
    <i name="e_fr_energy">   -422.46075203 </i>
    <i name="e_wo_entrp">   -422.45206938 </i>
    <i name="e_0_energy">   -422.45641070 </i>
   </energy>
  </scstep>
  <scstep>
   <time name="diag">    0.51    0.51</time>
   <time name="diis">    1.42    1.42</time>
   <time name="orth">    0.09    0.09</time>
   <time name="total">    2.18    2.18</time>
   <energy>
    <i name="e_fr_energy">   -423.01653623 </i>
    <i name="e_wo_entrp">   -423.00515106 </i>
    <i name="e_0_energy">   -423.01084364 </i>
   </energy>
  </scstep>
  <scstep>
   <time name="diag">    0.50    0.50</time>
   <time name="diis">    1.38    1.38</time>
   <time name="orth">    0.08    0.08</time>
   <time name="total">    2.12    2.13</time>
   <energy>
    <i name="e_fr_energy">   -423.25490442 </i>
    <i name="e_wo_entrp">   -423.24277459 </i>
    <i name="e_0_energy">   -423.24883950 </i>
   </energy>
  </scstep>
  <scstep>
   <time name="diag">    0.51    0.51</time>
   <time name="diis">    1.37    1.38</time>
   <time name="orth">    0.08    0.08</time>
   <time name="total">    2.12    2.13</time>
   <energy>
    <i name="e_fr_energy">   -423.45646567 </i>
    <i name="e_wo_entrp">   -423.44414577 </i>
    <i name="e_0_energy">   -423.45030572 </i>
   </energy>
  </scstep>
  <scstep>
   <time name="diag">    0.50    0.50</time>
   <time name="diis">    1.39    1.40</time>
   <time name="orth">    0.09    0.09</time>
   <time name="total">    2.14    2.15</time>
   <energy>
    <i name="e_fr_energy">   -423.50151922 </i>
    <i name="e_wo_entrp">   -423.48929050 </i>
    <i name="e_0_energy">   -423.49540486 </i>
   </energy>
  </scstep>
  <scstep>
   <time name="diag">    0.51    0.51</time>
   <time name="diis">    1.36    1.36</time>
   <time name="orth">    0.09    0.09</time>
   <time name="total">    2.11    2.12</time>
   <energy>
    <i name="e_fr_energy">   -423.55842870 </i>
    <i name="e_wo_entrp">   -423.54660756 </i>
    <i name="e_0_energy">   -423.55251813 </i>
   </energy>
  </scstep>
  <scstep>
   <time name="diag">    0.50    0.51</time>
   <time name="diis">    1.35    1.36</time>
   <time name="orth">    0.09    0.09</time>
   <time name="total">    2.10    2.11</time>
   <energy>
    <i name="e_fr_energy">   -423.57044738 </i>
    <i name="e_wo_entrp">   -423.55889135 </i>
    <i name="e_0_energy">   -423.56466936 </i>
   </energy>
  </scstep>
  <scstep>
   <time name="diag">    0.50    0.50</time>
   <time name="diis">    1.37    1.37</time>
   <time name="orth">    0.09    0.09</time>
   <time name="total">    2.11    2.12</time>
   <energy>
    <i name="e_fr_energy">   -423.57475858 </i>
    <i name="e_wo_entrp">   -423.56351426 </i>
    <i name="e_0_energy">   -423.56913642 </i>
   </energy>
  </scstep>
  <scstep>
   <time name="diag">    0.50    0.50</time>
   <time name="diis">    1.19    1.19</time>
   <time name="orth">    0.08    0.09</time>
   <time name="total">    1.94    1.94</time>
   <energy>
    <i name="e_fr_energy">   -423.57836764 </i>
    <i name="e_wo_entrp">   -423.56730258 </i>
    <i name="e_0_energy">   -423.57283511 </i>
   </energy>
  </scstep>
  <scstep>
   <time name="diag">    0.50    0.50</time>
   <time name="diis">    1.13    1.13</time>
   <time name="orth">    0.08    0.08</time>
   <time name="total">    1.87    1.88</time>
   <energy>
    <i name="e_fr_energy">   -423.58048862 </i>
    <i name="e_wo_entrp">   -423.56960758 </i>
    <i name="e_0_energy">   -423.57504810 </i>
   </energy>
  </scstep>
  <scstep>
   <time name="diag">    0.51    0.51</time>
   <time name="diis">    1.01    1.01</time>
   <time name="orth">    0.08    0.09</time>
   <time name="total">    1.76    1.76</time>
   <energy>
    <i name="e_fr_energy">   -423.58078777 </i>
    <i name="e_wo_entrp">   -423.56996207 </i>
    <i name="e_0_energy">   -423.57537492 </i>
   </energy>
  </scstep>
  <scstep>
   <time name="diag">    0.50    0.50</time>
   <time name="diis">    0.98    0.98</time>
   <time name="orth">    0.09    0.09</time>
   <time name="total">    1.73    1.73</time>
   <energy>
    <i name="e_fr_energy">   -423.58092809 </i>
    <i name="e_wo_entrp">   -423.57010020 </i>
    <i name="e_0_energy">   -423.57551415 </i>
   </energy>
  </scstep>
  <scstep>
   <time name="diag">    0.64    0.66</time>
   <time name="diis">    0.93    0.93</time>
   <time name="orth">    0.09    0.09</time>
   <time name="total">    1.70    1.72</time>
   <energy>
    <i name="alphaZ">    372.54520999 </i>
    <i name="ewald">  38165.18647767 </i>
    <i name="hartreedc"> -46378.95517734 </i>
    <i name="XCdc">    720.77280535 </i>
    <i name="pawpsdc">  20732.08117993 </i>
    <i name="pawaedc"> -20769.50989088 </i>
    <i name="eentropy">     -0.01086039 </i>
    <i name="bandstr">  -1469.40280539 </i>
    <i name="atom">   8203.71208324 </i>
    <i name="e_fr_energy">   -423.58097780 </i>
    <i name="e_wo_entrp">   -423.57011741 </i>
    <i name="e_0_energy">   -423.57554761 </i>
   </energy>
  </scstep>
  <structure>
   <crystal>
    <varray name="basis" >
     <v>       4.26620007       0.00000000       0.00000000 </v>
     <v>       0.00000000      39.40950012       0.00000000 </v>
     <v>      -1.42206471       0.00000000       3.18109970 </v>
    </varray>
    <i name="volume">    534.83451311 </i>
    <varray name="rec_basis" >
     <v>       0.23440063       0.00000000       0.10478542 </v>
     <v>       0.00000000       0.02537459       0.00000000 </v>
     <v>       0.00000000       0.00000000       0.31435670 </v>
    </varray>
   </crystal>
   <varray name="positions" >
    <v>       0.99972635       0.00000783       0.00000000 </v>
    <v>       0.33324726       0.00000789       0.00000000 </v>
    <v>       0.49972635       0.03122317       0.00000000 </v>
    <v>       0.83324726       0.03122310       0.00000000 </v>
    <v>       0.99989858       0.06246133       0.00000000 </v>
    <v>       0.33301183       0.06245907       0.00000000 </v>
    <v>       0.49966823       0.09369861       0.00000000 </v>
    <v>       0.83324927       0.09370033       0.00000000 </v>
    <v>       0.99972692       0.12492436       0.00000000 </v>
    <v>       0.33326526       0.12492629       0.00000000 </v>
    <v>       0.49993855       0.15617451       0.00000000 </v>
    <v>       0.83312972       0.15617360       0.00000000 </v>
    <v>       0.99968157       0.18741802       0.00000000 </v>
    <v>       0.33345729       0.18742148       0.00000000 </v>
    <v>       0.49976508       0.21863473       0.00000000 </v>
    <v>       0.83340337       0.21863213       0.00000000 </v>
    <v>       0.99982960       0.24990082       0.00000000 </v>
    <v>       0.33333668       0.24990181       0.00000000 </v>
    <v>       0.49924169       0.28117075       0.00000000 </v>
    <v>       0.83390417       0.28116934       0.00000000 </v>
    <v>       0.00216473       0.31214964       0.00000000 </v>
    <v>       0.33091401       0.31214843       0.00000000 </v>
    <v>       0.50011866       0.34329153       0.00000000 </v>
    <v>       0.83287698       0.34329222       0.00000000 </v>
    <v>       0.00011866       0.68793945       0.00000000 </v>
    <v>       0.33287698       0.68793876       0.00000000 </v>
    <v>       0.50216473       0.71908037       0.00000000 </v>
    <v>       0.83091401       0.71908157       0.00000000 </v>
    <v>       0.99924169       0.75005929       0.00000000 </v>
    <v>       0.33390417       0.75006070       0.00000000 </v>
    <v>       0.49982960       0.78133017       0.00000000 </v>
    <v>       0.83333668       0.78132918       0.00000000 </v>
    <v>       0.99976508       0.81259525       0.00000000 </v>
    <v>       0.33340337       0.81259786       0.00000000 </v>
    <v>       0.49968157       0.84381198       0.00000000 </v>
    <v>       0.83345729       0.84380853       0.00000000 </v>
    <v>       0.99993855       0.87505551       0.00000000 </v>
    <v>       0.33312972       0.87505641       0.00000000 </v>
    <v>       0.49972692       0.90630566       0.00000000 </v>
    <v>       0.83326526       0.90630372       0.00000000 </v>
    <v>       0.99966823       0.93753236       0.00000000 </v>
    <v>       0.33324927       0.93753065       0.00000000 </v>
    <v>       0.49989858       0.96876969       0.00000000 </v>
    <v>       0.83301183       0.96877194       0.00000000 </v>
    <v>       0.92883304       0.37417703       0.00000000 </v>
    <v>       0.40408709       0.37417364       0.00000000 </v>
    <v>       0.42883310       0.65705395       0.00000000 </v>
    <v>       0.90408811       0.65705735       0.00000000 </v>
   </varray>
  </structure>
  <varray name="forces" >
   <v>       0.00616423       0.00715029      -0.00801742 </v>
   <v>      -0.01076873       0.00527617       0.00765181 </v>
   <v>       0.00616423      -0.00715029      -0.00801742 </v>
   <v>      -0.01076873      -0.00527617       0.00765181 </v>
   <v>       0.02054633       0.00613562      -0.01792788 </v>
   <v>      -0.01731369       0.00743074       0.01825869 </v>
   <v>       0.00586514       0.00481277      -0.00510078 </v>
   <v>      -0.00167106       0.00240362       0.00519104 </v>
   <v>       0.01519948      -0.00792880      -0.01158738 </v>
   <v>      -0.01385073      -0.00988068       0.01152266 </v>
   <v>       0.01402006       0.01361466      -0.02363107 </v>
   <v>      -0.01532086       0.01522434       0.02317452 </v>
   <v>      -0.00476915      -0.00254918      -0.00356281 </v>
   <v>       0.00223244      -0.00573311       0.00373356 </v>
   <v>       0.05572808      -0.02607698      -0.02990232 </v>
   <v>      -0.05720441      -0.02201958       0.02970888 </v>
   <v>      -0.04148907       0.07389270      -0.03470840 </v>
   <v>       0.04065501       0.07463817       0.03455400 </v>
   <v>       0.06416046      -0.13795903      -0.00635331 </v>
   <v>      -0.06653689      -0.13635546       0.00643082 </v>
   <v>      -0.00667221       0.08591359      -0.16229522 </v>
   <v>       0.00665752       0.08512053       0.16213810 </v>
   <v>      -0.83204791       0.68045496       0.12523230 </v>
   <v>       0.83449758       0.67987907      -0.12443038 </v>
   <v>      -0.83204791      -0.68045496       0.12523230 </v>
   <v>       0.83449758      -0.67987907      -0.12443038 </v>
   <v>      -0.00667221      -0.08591359      -0.16229522 </v>
   <v>       0.00665752      -0.08512053       0.16213810 </v>
   <v>       0.06416046       0.13795903      -0.00635331 </v>
   <v>      -0.06653689       0.13635546       0.00643082 </v>
   <v>      -0.04148907      -0.07389270      -0.03470840 </v>
   <v>       0.04065501      -0.07463817       0.03455400 </v>
   <v>       0.05572808       0.02607698      -0.02990232 </v>
   <v>      -0.05720441       0.02201958       0.02970888 </v>
   <v>      -0.00476915       0.00254918      -0.00356281 </v>
   <v>       0.00223244       0.00573311       0.00373356 </v>
   <v>       0.01402006      -0.01361466      -0.02363107 </v>
   <v>      -0.01532086      -0.01522434       0.02317452 </v>
   <v>       0.01519948       0.00792880      -0.01158738 </v>
   <v>      -0.01385073       0.00988068       0.01152266 </v>
   <v>       0.00586514      -0.00481277      -0.00510078 </v>
   <v>      -0.00167106      -0.00240362       0.00519104 </v>
   <v>       0.02054633      -0.00613562      -0.01792788 </v>
   <v>      -0.01731369      -0.00743074       0.01825869 </v>
   <v>       0.93473757      -0.67358981      -0.03860152 </v>
   <v>      -0.93281920      -0.67346038       0.03852211 </v>
   <v>       0.93473757       0.67358981      -0.03860152 </v>
   <v>      -0.93281920       0.67346038       0.03852211 </v>
  </varray>
  <energy>
   <i name="e_fr_energy">   -429.60752103 </i>
   <i name="e_wo_entrp">   -429.60209084 </i>
   <i name="e_0_energy">     -0.01086039 </i>
  </energy>
  <time name="totalsc">   77.97   78.48</time>
 </calculation>
 <calculation>
  <scstep>
   <time name="diag">    0.50    0.50</time>
   <time name="diis">    0.95    0.95</time>
   <time name="orth">    0.08    0.09</time>
   <time name="total">    1.69    1.70</time>
   <energy>
    <i name="alphaZ">    372.54520999 </i>
    <i name="ewald">  38165.18647767 </i>
    <i name="hartreedc"> -46378.73401071 </i>
    <i name="XCdc">    720.77040857 </i>
    <i name="pawpsdc">  20732.01592337 </i>
    <i name="pawaedc"> -20769.44484047 </i>
    <i name="eentropy">     -0.01082735 </i>
    <i name="bandstr">  -1469.62145195 </i>
    <i name="atom">   8203.71208324 </i>
    <i name="e_fr_energy">   -423.58102763 </i>
    <i name="e_wo_entrp">   -423.57020028 </i>
    <i name="e_0_energy">   -423.57561395 </i>
   </energy>
  </scstep>
  <scstep>
   <time name="diag">    0.51    0.51</time>
   <time name="diis">    0.99    1.00</time>
   <time name="orth">    0.09    0.09</time>
   <time name="total">    1.63    1.64</time>
   <energy>
    <i name="alphaZ">    372.54520999 </i>
    <i name="ewald">  38165.18647767 </i>
    <i name="hartreedc"> -46378.21357437 </i>
    <i name="XCdc">    720.77115322 </i>
    <i name="pawpsdc">  20731.96238838 </i>
    <i name="pawaedc"> -20769.39359995 </i>
    <i name="eentropy">     -0.01106418 </i>
    <i name="bandstr">  -1470.14013989 </i>
    <i name="atom">   8203.71208324 </i>
    <i name="e_fr_energy">   -423.58106589 </i>
    <i name="e_wo_entrp">   -423.57000171 </i>
    <i name="e_0_energy">   -423.57553380 </i>
   </energy>
  </scstep>
  <structure>
   <crystal>
    <varray name="basis" >
     <v>       4.26620007       0.00000000       0.00000000 </v>
     <v>       0.00000000      39.40950012       0.00000000 </v>
     <v>      -1.42206471       0.00000000       3.18109970 </v>
    </varray>
    <i name="volume">    534.83451311 </i>
    <varray name="rec_basis" >
     <v>       0.23440063       0.00000000       0.10478542 </v>
     <v>       0.00000000       0.02537459       0.00000000 </v>
     <v>       0.00000000       0.00000000       0.31435670 </v>
    </varray>
   </crystal>
   <varray name="positions" >
    <v>       0.99972635       0.00000783       0.00000000 </v>
    <v>       0.33324726       0.00000789       0.00000000 </v>
    <v>       0.49972635       0.03122317       0.00000000 </v>
    <v>       0.83324726       0.03122310       0.00000000 </v>
    <v>       0.99989858       0.06246133       0.00000000 </v>
    <v>       0.33301183       0.06245907       0.00000000 </v>
    <v>       0.49966823       0.09369861       0.00000000 </v>
    <v>       0.83324927       0.09370033       0.00000000 </v>
    <v>       0.99972692       0.12492436       0.00000000 </v>
    <v>       0.33326526       0.12492629       0.00000000 </v>
    <v>       0.49993855       0.15617451       0.00000000 </v>
    <v>       0.83312972       0.15617360       0.00000000 </v>
    <v>       0.99968157       0.18741802       0.00000000 </v>
    <v>       0.33345729       0.18742148       0.00000000 </v>
    <v>       0.49976508       0.21863473       0.00000000 </v>
    <v>       0.83340337       0.21863213       0.00000000 </v>
    <v>       0.99982960       0.24990082       0.00000000 </v>
    <v>       0.33333668       0.24990181       0.00000000 </v>
    <v>       0.49924169       0.28117075       0.00000000 </v>
    <v>       0.83390417       0.28116934       0.00000000 </v>
    <v>       0.00216473       0.31214964       0.00000000 </v>
    <v>       0.33091401       0.31214843       0.00000000 </v>
    <v>       0.50011866       0.34329153       0.00000000 </v>
    <v>       0.83287698       0.34329222       0.00000000 </v>
    <v>       0.00011866       0.68793945       0.00000000 </v>
    <v>       0.33287698       0.68793876       0.00000000 </v>
    <v>       0.50216473       0.71908037       0.00000000 </v>
    <v>       0.83091401       0.71908157       0.00000000 </v>
    <v>       0.99924169       0.75005929       0.00000000 </v>
    <v>       0.33390417       0.75006070       0.00000000 </v>
    <v>       0.49982960       0.78133017       0.00000000 </v>
    <v>       0.83333668       0.78132918       0.00000000 </v>
    <v>       0.99976508       0.81259525       0.00000000 </v>
    <v>       0.33340337       0.81259786       0.00000000 </v>
    <v>       0.49968157       0.84381198       0.00000000 </v>
    <v>       0.83345729       0.84380853       0.00000000 </v>
    <v>       0.99993855       0.87505551       0.00000000 </v>
    <v>       0.33312972       0.87505641       0.00000000 </v>
    <v>       0.49972692       0.90630566       0.00000000 </v>
    <v>       0.83326526       0.90630372       0.00000000 </v>
    <v>       0.99966823       0.93753236       0.00000000 </v>
    <v>       0.33324927       0.93753065       0.00000000 </v>
    <v>       0.49989858       0.96876969       0.00000000 </v>
    <v>       0.83301183       0.96877194       0.00000000 </v>
    <v>       0.92883304       0.37417703       0.00000000 </v>
    <v>       0.40408709       0.37417364       0.00000000 </v>
    <v>       0.42883310       0.65705395       0.00000000 </v>
    <v>       0.90408811       0.65705735       0.00000000 </v>
   </varray>
  </structure>
  <varray name="forces" >
   <v>       0.00373974       0.00434119      -0.00808874 </v>
   <v>      -0.00834946       0.00246630       0.00772212 </v>
   <v>       0.00373974      -0.00434119      -0.00808874 </v>
   <v>      -0.00834946      -0.00246630       0.00772212 </v>
   <v>       0.01770820       0.00502490      -0.01752218 </v>
   <v>      -0.01447180       0.00632110       0.01785288 </v>
   <v>       0.00572105       0.00390018      -0.00507494 </v>
   <v>      -0.00152711       0.00148546       0.00516162 </v>
   <v>       0.01073069      -0.00349588      -0.01176427 </v>
   <v>      -0.00937891      -0.00544460       0.01170065 </v>
   <v>       0.01147122       0.01022144      -0.02356803 </v>
   <v>      -0.01278076       0.01182889       0.02311193 </v>
   <v>      -0.00441359      -0.00192499      -0.00378830 </v>
   <v>       0.00187937      -0.00510778       0.00395812 </v>
   <v>       0.04873622      -0.02033501      -0.03042285 </v>
   <v>      -0.05020049      -0.01626454       0.03023100 </v>
   <v>      -0.03760281       0.06545554      -0.03564060 </v>
   <v>       0.03676697       0.06620684       0.03548521 </v>
   <v>       0.05138443      -0.12461796      -0.00692284 </v>
   <v>      -0.05375213      -0.12299300       0.00699807 </v>
   <v>       0.00072937       0.06811536      -0.16836318 </v>
   <v>      -0.00074505       0.06734614       0.16820417 </v>
   <v>      -0.84755513       0.70233333       0.13196237 </v>
   <v>       0.84999468       0.70183733      -0.13115889 </v>
   <v>      -0.84755513      -0.70233333       0.13196237 </v>
   <v>       0.84999468      -0.70183733      -0.13115889 </v>
   <v>       0.00072937      -0.06811536      -0.16836318 </v>
   <v>      -0.00074505      -0.06734614       0.16820417 </v>
   <v>       0.05138443       0.12461796      -0.00692284 </v>
   <v>      -0.05375213       0.12299300       0.00699807 </v>
   <v>      -0.03760281      -0.06545554      -0.03564060 </v>
   <v>       0.03676697      -0.06620684       0.03548521 </v>
   <v>       0.04873622       0.02033501      -0.03042285 </v>
   <v>      -0.05020049       0.01626454       0.03023100 </v>
   <v>      -0.00441359       0.00192499      -0.00378830 </v>
   <v>       0.00187937       0.00510778       0.00395812 </v>
   <v>       0.01147122      -0.01022144      -0.02356803 </v>
   <v>      -0.01278076      -0.01182889       0.02311193 </v>
   <v>       0.01073069       0.00349588      -0.01176427 </v>
   <v>      -0.00937891       0.00544460       0.01170065 </v>
   <v>       0.00572105      -0.00390018      -0.00507494 </v>
   <v>      -0.00152711      -0.00148546       0.00516162 </v>
   <v>       0.01770820      -0.00502490      -0.01752218 </v>
   <v>      -0.01447180      -0.00632110       0.01785288 </v>
   <v>       0.93447626      -0.67653860      -0.03891201 </v>
   <v>      -0.93256096      -0.67645466       0.03883871 </v>
   <v>       0.93447626       0.67653860      -0.03891201 </v>
   <v>      -0.93256096       0.67645466       0.03883871 </v>
  </varray>
  <energy>
   <i name="e_fr_energy">   -429.60760912 </i>
   <i name="e_wo_entrp">   -429.60207703 </i>
   <i name="e_0_energy">     -0.01106418 </i>
  </energy>
  <time name="totalsc">    4.44    4.46</time>
 </calculation>
 <calculation>
  <scstep>
   <time name="diag">    0.50    0.50</time>
   <time name="diis">    0.95    0.95</time>
   <time name="orth">    0.08    0.08</time>
   <time name="total">    1.69    1.70</time>
   <energy>
    <i name="alphaZ">    372.54520999 </i>
    <i name="ewald">  38165.18647767 </i>
    <i name="hartreedc"> -46378.73560920 </i>
    <i name="XCdc">    720.76926954 </i>
    <i name="pawpsdc">  20731.93371150 </i>
    <i name="pawaedc"> -20769.36433360 </i>
    <i name="eentropy">     -0.01081426 </i>
    <i name="bandstr">  -1469.61687703 </i>
    <i name="atom">   8203.71208324 </i>
    <i name="e_fr_energy">   -423.58088214 </i>
    <i name="e_wo_entrp">   -423.57006789 </i>
    <i name="e_0_energy">   -423.57547501 </i>
   </energy>
  </scstep>
  <scstep>
   <time name="diag">    0.50    0.51</time>
   <time name="diis">    0.94    0.94</time>
   <time name="orth">    0.08    0.08</time>
   <time name="total">    1.69    1.70</time>
   <energy>
    <i name="e_fr_energy">   -423.58016428 </i>
    <i name="e_wo_entrp">   -423.56934746 </i>
    <i name="e_0_energy">   -423.57475587 </i>
   </energy>
  </scstep>
  <scstep>
   <time name="diag">    0.50    0.51</time>
   <time name="diis">    0.85    0.85</time>
   <time name="orth">    0.08    0.08</time>
   <time name="total">    1.59    1.60</time>
   <energy>
    <i name="e_fr_energy">   -423.58032970 </i>
    <i name="e_wo_entrp">   -423.56947377 </i>
    <i name="e_0_energy">   -423.57490173 </i>
   </energy>
  </scstep>
  <scstep>
   <time name="diag">    0.50    0.50</time>
   <time name="diis">    0.81    0.82</time>
   <time name="orth">    0.08    0.08</time>
   <time name="total">    1.55    1.56</time>
   <energy>
    <i name="e_fr_energy">   -423.57988530 </i>
    <i name="e_wo_entrp">   -423.56905392 </i>
    <i name="e_0_energy">   -423.57446961 </i>
   </energy>
  </scstep>
  <scstep>
   <time name="diag">    0.50    0.50</time>
   <time name="diis">    0.86    0.86</time>
   <time name="orth">    0.09    0.09</time>
   <time name="total">    1.60    1.61</time>
   <energy>
    <i name="e_fr_energy">   -423.57932379 </i>
    <i name="e_wo_entrp">   -423.56853609 </i>
    <i name="e_0_energy">   -423.57392994 </i>
   </energy>
  </scstep>
  <scstep>
   <time name="diag">    0.50    0.51</time>
   <time name="diis">    0.92    0.92</time>
   <time name="orth">    0.08    0.08</time>
   <time name="total">    1.66    1.67</time>
   <energy>
    <i name="e_fr_energy">   -423.57789548 </i>
    <i name="e_wo_entrp">   -423.56720605 </i>
    <i name="e_0_energy">   -423.57255077 </i>
   </energy>
  </scstep>
  <scstep>
   <time name="diag">    0.50    0.50</time>
   <time name="diis">    0.81    0.81</time>
   <time name="orth">    0.08    0.08</time>
   <time name="total">    1.55    1.55</time>
   <energy>
    <i name="e_fr_energy">   -423.57764190 </i>
    <i name="e_wo_entrp">   -423.56698506 </i>
    <i name="e_0_energy">   -423.57231348 </i>
   </energy>
  </scstep>
  <scstep>
   <time name="diag">    0.50    0.51</time>
   <time name="diis">    0.70    0.70</time>
   <time name="orth">    0.09    0.09</time>
   <time name="total">    1.33    1.34</time>
   <energy>
    <i name="alphaZ">    372.54520999 </i>
    <i name="ewald">  38165.18647767 </i>
    <i name="hartreedc"> -46378.70162302 </i>
    <i name="XCdc">    720.77121402 </i>
    <i name="pawpsdc">  20731.96473293 </i>
    <i name="pawaedc"> -20769.39518284 </i>
    <i name="eentropy">     -0.01070051 </i>
    <i name="bandstr">  -1469.64991013 </i>
    <i name="atom">   8203.71208324 </i>
    <i name="e_fr_energy">   -423.57769864 </i>
    <i name="e_wo_entrp">   -423.56699812 </i>
    <i name="e_0_energy">   -423.57234838 </i>
   </energy>
  </scstep>
  <structure>
   <crystal>
    <varray name="basis" >
     <v>       4.26620007       0.00000000       0.00000000 </v>
     <v>       0.00000000      39.40950012       0.00000000 </v>
     <v>      -1.42206471       0.00000000       3.18109970 </v>
    </varray>
    <i name="volume">    534.83451311 </i>
    <varray name="rec_basis" >
     <v>       0.23440063       0.00000000       0.10478542 </v>
     <v>       0.00000000       0.02537459       0.00000000 </v>
     <v>       0.00000000       0.00000000       0.31435670 </v>
    </varray>
   </crystal>
   <varray name="positions" >
    <v>       0.99972635       0.00000783       0.00000000 </v>
    <v>       0.33324726       0.00000789       0.00000000 </v>
    <v>       0.49972635       0.03122317       0.00000000 </v>
    <v>       0.83324726       0.03122310       0.00000000 </v>
    <v>       0.99989858       0.06246133       0.00000000 </v>
    <v>       0.33301183       0.06245907       0.00000000 </v>
    <v>       0.49966823       0.09369861       0.00000000 </v>
    <v>       0.83324927       0.09370033       0.00000000 </v>
    <v>       0.99972692       0.12492436       0.00000000 </v>
    <v>       0.33326526       0.12492629       0.00000000 </v>
    <v>       0.49993855       0.15617451       0.00000000 </v>
    <v>       0.83312972       0.15617360       0.00000000 </v>
    <v>       0.99968157       0.18741802       0.00000000 </v>
    <v>       0.33345729       0.18742148       0.00000000 </v>
    <v>       0.49976508       0.21863473       0.00000000 </v>
    <v>       0.83340337       0.21863213       0.00000000 </v>
    <v>       0.99982960       0.24990082       0.00000000 </v>
    <v>       0.33333668       0.24990181       0.00000000 </v>
    <v>       0.49924169       0.28117075       0.00000000 </v>
    <v>       0.83390417       0.28116934       0.00000000 </v>
    <v>       0.00216473       0.31214964       0.00000000 </v>
    <v>       0.33091401       0.31214843       0.00000000 </v>
    <v>       0.50011866       0.34329153       0.00000000 </v>
    <v>       0.83287698       0.34329222       0.00000000 </v>
    <v>       0.00011866       0.68793945       0.00000000 </v>
    <v>       0.33287698       0.68793876       0.00000000 </v>
    <v>       0.50216473       0.71908037       0.00000000 </v>
    <v>       0.83091401       0.71908157       0.00000000 </v>
    <v>       0.99924169       0.75005929       0.00000000 </v>
    <v>       0.33390417       0.75006070       0.00000000 </v>
    <v>       0.49982960       0.78133017       0.00000000 </v>
    <v>       0.83333668       0.78132918       0.00000000 </v>
    <v>       0.99976508       0.81259525       0.00000000 </v>
    <v>       0.33340337       0.81259786       0.00000000 </v>
    <v>       0.49968157       0.84381198       0.00000000 </v>
    <v>       0.83345729       0.84380853       0.00000000 </v>
    <v>       0.99993855       0.87505551       0.00000000 </v>
    <v>       0.33312972       0.87505641       0.00000000 </v>
    <v>       0.49972692       0.90630566       0.00000000 </v>
    <v>       0.83326526       0.90630372       0.00000000 </v>
    <v>       0.99966823       0.93753236       0.00000000 </v>
    <v>       0.33324927       0.93753065       0.00000000 </v>
    <v>       0.49989858       0.96876969       0.00000000 </v>
    <v>       0.83301183       0.96877194       0.00000000 </v>
    <v>       0.92883304       0.37417703       0.00000000 </v>
    <v>       0.40408709       0.37417364       0.00000000 </v>
    <v>       0.42883310       0.65705395       0.00000000 </v>
    <v>       0.90408811       0.65705735       0.00000000 </v>
   </varray>
  </structure>
  <varray name="forces" >
   <v>       0.00464665       0.00572385      -0.00813018 </v>
   <v>      -0.00925202       0.00385047       0.00776403 </v>
   <v>       0.00464665      -0.00572385      -0.00813018 </v>
   <v>      -0.00925202      -0.00385047       0.00776403 </v>
   <v>       0.01906012       0.00537409      -0.01775940 </v>
   <v>      -0.01582170       0.00666809       0.01809100 </v>
   <v>       0.00603209       0.00398601      -0.00510325 </v>
   <v>      -0.00183635       0.00157179       0.00519227 </v>
   <v>       0.01174901      -0.00576350      -0.01199083 </v>
   <v>      -0.01039814      -0.00771723       0.01192658 </v>
   <v>       0.01328832       0.00966150      -0.02358755 </v>
   <v>      -0.01459086       0.01127190       0.02313030 </v>
   <v>      -0.00388289      -0.00192552      -0.00404076 </v>
   <v>       0.00134533      -0.00510790       0.00421069 </v>
   <v>       0.04699238      -0.02124099      -0.03099569 </v>
   <v>      -0.04846400      -0.01717862       0.03080282 </v>
   <v>      -0.03189019       0.06033583      -0.03551542 </v>
   <v>       0.03105465       0.06108624       0.03536078 </v>
   <v>       0.04766141      -0.11499561      -0.00747801 </v>
   <v>      -0.05003505      -0.11338396       0.00755347 </v>
   <v>      -0.00110901       0.06009113      -0.17177780 </v>
   <v>       0.00109761       0.05931024       0.17162296 </v>
   <v>      -0.84684892       0.70277510       0.13677721 </v>
   <v>       0.84929036       0.70228891      -0.13597245 </v>
   <v>      -0.84684892      -0.70277510       0.13677721 </v>
   <v>       0.84929036      -0.70228891      -0.13597245 </v>
   <v>      -0.00110901      -0.06009113      -0.17177780 </v>
   <v>       0.00109761      -0.05931024       0.17162296 </v>
   <v>       0.04766141       0.11499561      -0.00747801 </v>
   <v>      -0.05003505       0.11338396       0.00755347 </v>
   <v>      -0.03189019      -0.06033583      -0.03551542 </v>
   <v>       0.03105465      -0.06108624       0.03536078 </v>
   <v>       0.04699238       0.02124099      -0.03099569 </v>
   <v>      -0.04846400       0.01717862       0.03080282 </v>
   <v>      -0.00388289       0.00192552      -0.00404076 </v>
   <v>       0.00134533       0.00510790       0.00421069 </v>
   <v>       0.01328832      -0.00966150      -0.02358755 </v>
   <v>      -0.01459086      -0.01127190       0.02313030 </v>
   <v>       0.01174901       0.00576350      -0.01199083 </v>
   <v>      -0.01039814       0.00771723       0.01192658 </v>
   <v>       0.00603209      -0.00398601      -0.00510325 </v>
   <v>      -0.00183635      -0.00157179       0.00519227 </v>
   <v>       0.01906012      -0.00537409      -0.01775940 </v>
   <v>      -0.01582170      -0.00666809       0.01809100 </v>
   <v>       0.93403878      -0.68011857      -0.03883992 </v>
   <v>      -0.93212758      -0.67996161       0.03875914 </v>
   <v>       0.93403878       0.68011857      -0.03883992 </v>
   <v>      -0.93212758       0.67996161       0.03875914 </v>
  </varray>
  <energy>
   <i name="e_fr_energy">   -429.60424187 </i>
   <i name="e_wo_entrp">   -429.59889161 </i>
   <i name="e_0_energy">     -0.01070051 </i>
  </energy>
  <time name="totalsc">   13.54   13.60</time>
  <eigenvalues>
   <array>
    <dimension dim="1">band</dimension>
    <dimension dim="2">kpoint</dimension>
    <dimension dim="3">spin</dimension>
    <field>eigene</field>
    <field>occ</field>
    <set>
     <set comment="spin 1">
      <set comment="kpoint 1">
       <r>  -21.1843    1.0000 </r>
       <r>  -21.1770    1.0000 </r>
       <r>  -18.5848    1.0000 </r>
       <r>  -18.5777    1.0000 </r>
       <r>  -17.9365    1.0000 </r>
       <r>  -17.8003    1.0000 </r>
       <r>  -17.6117    1.0000 </r>
       <r>  -17.3523    1.0000 </r>
       <r>  -17.0201    1.0000 </r>
       <r>  -16.6143    1.0000 </r>
       <r>  -16.1457    1.0000 </r>
       <r>  -15.6013    1.0000 </r>
       <r>  -14.9967    1.0000 </r>
       <r>  -14.3333    1.0000 </r>
       <r>  -13.6192    1.0000 </r>
       <r>  -12.8658    1.0000 </r>
       <r>  -12.3780    1.0000 </r>
       <r>  -12.2647    1.0000 </r>
       <r>  -12.1133    1.0000 </r>
       <r>  -12.0977    1.0000 </r>
       <r>  -11.9026    1.0000 </r>
       <r>  -11.6295    1.0000 </r>
       <r>  -11.3967    1.0000 </r>
       <r>  -11.3554    1.0000 </r>
       <r>  -11.2920    1.0000 </r>
       <r>  -11.2913    1.0000 </r>
       <r>  -11.1823    1.0000 </r>
       <r>  -11.0744    1.0000 </r>
       <r>  -10.8981    1.0000 </r>
       <r>  -10.8767    1.0000 </r>
       <r>  -10.7969    1.0000 </r>
       <r>  -10.6805    1.0000 </r>
       <r>  -10.5999    1.0000 </r>
       <r>  -10.4320    1.0000 </r>
       <r>   -9.9124    1.0000 </r>
       <r>   -9.3364    1.0000 </r>
       <r>   -8.7076    1.0000 </r>
       <r>   -8.7047    1.0000 </r>
       <r>   -8.6343    1.0000 </r>
       <r>   -8.3332    1.0000 </r>
       <r>   -8.2873    1.0000 </r>
       <r>   -8.0288    1.0000 </r>
       <r>   -7.8330    1.0000 </r>
       <r>   -7.6566    1.0000 </r>
       <r>   -7.3059    1.0000 </r>
       <r>   -7.3020    1.0000 </r>
       <r>   -6.8908    1.0000 </r>
       <r>   -6.6985    1.0000 </r>
       <r>   -6.5467    1.0000 </r>
       <r>   -6.2099    1.0000 </r>
       <r>   -5.9935    1.0000 </r>
       <r>   -5.7727    1.0000 </r>
       <r>   -5.5980    1.0000 </r>
       <r>   -5.3081    1.0000 </r>
       <r>   -5.0466    1.0000 </r>
       <r>   -4.9915    1.0000 </r>
       <r>   -4.8003    1.0000 </r>
       <r>   -4.5727    1.0000 </r>
       <r>   -4.5130    1.0000 </r>
       <r>   -4.4993    1.0000 </r>
       <r>   -4.3803    1.0000 </r>
       <r>   -4.2633    1.0000 </r>
       <r>   -4.2179    1.0000 </r>
       <r>   -4.1788    1.0000 </r>
       <r>   -3.9142    1.0000 </r>
       <r>   -3.7594    1.0000 </r>
       <r>   -3.6440    1.0000 </r>
       <r>   -3.5818    1.0000 </r>
       <r>   -3.2078    1.0000 </r>
       <r>   -3.1868    1.0000 </r>
       <r>   -3.1519    1.0000 </r>
       <r>   -2.7276    1.0000 </r>
       <r>   -2.6843    1.0000 </r>
       <r>   -2.6457    1.0000 </r>
       <r>   -2.2235    1.0000 </r>
       <r>   -2.1667    1.0000 </r>
       <r>   -2.1357    1.0000 </r>
       <r>   -2.0875    1.0000 </r>
       <r>   -2.0780    1.0000 </r>
       <r>   -1.6976    1.0000 </r>
       <r>   -1.6711    1.0000 </r>
       <r>   -1.6643    1.0000 </r>
       <r>   -1.3842    1.0000 </r>
       <r>   -1.3312    1.0000 </r>
       <r>   -1.1155    1.0000 </r>
       <r>   -1.0918    1.0000 </r>
       <r>   -1.0652    1.0000 </r>
       <r>   -1.0289    1.0000 </r>
       <r>   -0.8570    1.0000 </r>
       <r>   -0.6092    1.0000 </r>
       <r>   -0.4357    1.0000 </r>
       <r>   -0.2756    1.0000 </r>
       <r>    0.1402    1.0000 </r>
       <r>    0.2071    1.0000 </r>
       <r>    0.6364    1.0000 </r>
       <r>    0.8419    1.0000 </r>
       <r>    1.1966    1.0000 </r>
       <r>    1.3968    1.0000 </r>
       <r>    1.4037    1.0000 </r>
       <r>    1.4405    1.0000 </r>
       <r>    1.8437    0.1126 </r>
       <r>    1.9708    0.0000 </r>
       <r>    2.3943    0.0000 </r>
       <r>    2.5476    0.0000 </r>
       <r>    2.7024    0.0000 </r>
       <r>    2.8977    0.0000 </r>
       <r>    2.9790    0.0000 </r>
       <r>    3.0110    0.0000 </r>
       <r>    3.0191    0.0000 </r>
       <r>    3.2504    0.0000 </r>
       <r>    3.2575    0.0000 </r>
       <r>    3.3131    0.0000 </r>
       <r>    4.1345    0.0000 </r>
       <r>    5.0074    0.0000 </r>
       <r>    5.9227    0.0000 </r>
       <r>    6.5801    0.0000 </r>
       <r>    6.6944    0.0000 </r>
       <r>    6.8375    0.0000 </r>
       <r>    6.8700    0.0000 </r>
       <r>    7.0381    0.0000 </r>
       <r>    7.2972    0.0000 </r>
       <r>    7.6090    0.0000 </r>
       <r>    7.8373    0.0000 </r>
       <r>    7.9495    0.0000 </r>
       <r>    8.3384    0.0000 </r>
       <r>    8.6769    0.0000 </r>
       <r>    8.8220    0.0000 </r>
       <r>    9.1094    0.0000 </r>
       <r>    9.1953    0.0000 </r>
       <r>    9.2398    0.0000 </r>
       <r>    9.6910    0.0000 </r>
       <r>    9.7571    0.0000 </r>
       <r>    9.8570    0.0000 </r>
       <r>   10.2175    0.0000 </r>
       <r>   10.2421    0.0000 </r>
       <r>   10.2932    0.0000 </r>
       <r>   10.3594    0.0000 </r>
       <r>   10.4393    0.0000 </r>
       <r>   10.5000    0.0000 </r>
       <r>   10.5399    0.0000 </r>
       <r>   10.6137    0.0000 </r>
       <r>   10.8792    0.0000 </r>
       <r>   10.9991    0.0000 </r>
       <r>   11.0887    0.0000 </r>
       <r>   11.1217    0.0000 </r>
       <r>   11.2660    0.0000 </r>
       <r>   11.3012    0.0000 </r>
       <r>   11.4535    0.0000 </r>
       <r>   11.5298    0.0000 </r>
       <r>   11.6730    0.0000 </r>
       <r>   11.8647    0.0000 </r>
       <r>   12.2428    0.0000 </r>
      </set>
      <set comment="kpoint 2">
       <r>  -21.0651    1.0000 </r>
       <r>  -21.0578    1.0000 </r>
       <r>  -18.8072    1.0000 </r>
       <r>  -18.8001    1.0000 </r>
       <r>  -17.7578    1.0000 </r>
       <r>  -17.6220    1.0000 </r>
       <r>  -17.4341    1.0000 </r>
       <r>  -17.1758    1.0000 </r>
       <r>  -16.8448    1.0000 </r>
       <r>  -16.4404    1.0000 </r>
       <r>  -15.9734    1.0000 </r>
       <r>  -15.4308    1.0000 </r>
[...]
       <r>   -13.9005     3.0505    16.2125 </r>
       <r>   -13.7735     3.8590    16.7025 </r>
       <r>   -13.6465     3.5812    17.1572 </r>
       <r>   -13.5196     4.0114    17.6665 </r>
       <r>   -13.3926     6.8657    18.5383 </r>
       <r>   -13.2656     3.4866    18.9810 </r>
       <r>   -13.1386     2.9229    19.3522 </r>
       <r>   -13.0117     2.2175    19.6337 </r>
       <r>   -12.8847     5.8952    20.3823 </r>
       <r>   -12.7577     2.4484    20.6932 </r>
       <r>   -12.6307     3.2365    21.1041 </r>
       <r>   -12.5038     4.7000    21.7009 </r>
       <r>   -12.3768     3.6291    22.1617 </r>
       <r>   -12.2498     1.6662    22.3733 </r>
       <r>   -12.1228     3.6966    22.8427 </r>
       <r>   -11.9959     4.9704    23.4738 </r>
       <r>   -11.8689     4.3808    24.0301 </r>
       <r>   -11.7419     3.8952    24.5247 </r>
       <r>   -11.6149     0.9795    24.6490 </r>
       <r>   -11.4880     2.8054    25.0053 </r>
       <r>   -11.3610     3.2572    25.4189 </r>
       <r>   -11.2340     4.2754    25.9617 </r>
       <r>   -11.1070     2.0553    26.2227 </r>
       <r>   -10.9801     4.1422    26.7487 </r>
       <r>   -10.8531     3.9700    27.2528 </r>
       <r>   -10.7261     3.7719    27.7317 </r>
       <r>   -10.5991     1.9708    27.9819 </r>
       <r>   -10.4721     4.0313    28.4938 </r>
       <r>   -10.3452     4.4264    29.0559 </r>
       <r>   -10.2182     3.1147    29.4514 </r>
       <r>   -10.0912     3.4784    29.8930 </r>
       <r>    -9.9642     3.7659    30.3712 </r>
       <r>    -9.8373     5.6135    31.0840 </r>
       <r>    -9.7103     4.7441    31.6864 </r>
       <r>    -9.5833     2.8071    32.0428 </r>
       <r>    -9.4563     6.7179    32.8958 </r>
       <r>    -9.3294     8.6248    33.9910 </r>
       <r>    -9.2024     2.6944    34.3331 </r>
       <r>    -9.0754     0.0020    34.3333 </r>
       <r>    -8.9484     0.0424    34.3387 </r>
       <r>    -8.8215     2.1441    34.6110 </r>
       <r>    -8.6945     2.7595    34.9613 </r>
       <r>    -8.5675     7.9600    35.9721 </r>
       <r>    -8.4405     1.5324    36.1667 </r>
       <r>    -8.3136     0.1376    36.1841 </r>
       <r>    -8.1866     2.9003    36.5524 </r>
       <r>    -8.0596     3.4749    36.9936 </r>
       <r>    -7.9326     5.6264    37.7080 </r>
       <r>    -7.8057     8.8158    38.8274 </r>
       <r>    -7.6787     7.8955    39.8300 </r>
       <r>    -7.5517     5.1951    40.4896 </r>
       <r>    -7.4247     6.0599    41.2591 </r>
       <r>    -7.2978     2.9167    41.6294 </r>
       <r>    -7.1708     2.5930    41.9587 </r>
       <r>    -7.0438     4.1072    42.4802 </r>
       <r>    -6.9168     3.6058    42.9381 </r>
       <r>    -6.7898     4.2666    43.4798 </r>
       <r>    -6.6629     3.3890    43.9101 </r>
       <r>    -6.5359     5.0826    44.5555 </r>
       <r>    -6.4089    10.8789    45.9369 </r>
       <r>    -6.2819     6.4123    46.7511 </r>
       <r>    -6.1550     5.6815    47.4725 </r>
       <r>    -6.0280     2.4484    47.7834 </r>
       <r>    -5.9010     8.3011    48.8374 </r>
       <r>    -5.7740    12.1725    50.3830 </r>
       <r>    -5.6471     9.5666    51.5978 </r>
       <r>    -5.5201     6.2181    52.3873 </r>
       <r>    -5.3931     5.2537    53.0544 </r>
       <r>    -5.2661     5.8543    53.7978 </r>
       <r>    -5.1392     6.6757    54.6454 </r>
       <r>    -5.0122     3.7193    55.1177 </r>
       <r>    -4.8852    11.3285    56.5561 </r>
       <r>    -4.7582     9.6400    57.7802 </r>
       <r>    -4.6313    16.6067    59.8888 </r>
       <r>    -4.5043     9.8744    61.1426 </r>
       <r>    -4.3773    10.3855    62.4613 </r>
       <r>    -4.2503    10.3745    63.7787 </r>
       <r>    -4.1234     7.9716    64.7909 </r>
       <r>    -3.9964    15.9018    66.8100 </r>
       <r>    -3.8694     7.2427    67.7297 </r>
       <r>    -3.7424     9.8581    68.9814 </r>
       <r>    -3.6154     7.1163    69.8850 </r>
       <r>    -3.4885    12.8508    71.5168 </r>
       <r>    -3.3615    10.9942    72.9128 </r>
       <r>    -3.2345     8.2340    73.9583 </r>
       <r>    -3.1075     6.2055    74.7462 </r>
       <r>    -2.9806     7.7868    75.7350 </r>
       <r>    -2.8536    11.1362    77.1490 </r>
       <r>    -2.7266     4.8392    77.7634 </r>
       <r>    -2.5996     9.6404    78.9875 </r>
       <r>    -2.4727     7.2205    79.9044 </r>
       <r>    -2.3457     6.8135    80.7695 </r>
       <r>    -2.2187     7.0427    81.6638 </r>
       <r>    -2.0917     5.7463    82.3934 </r>
       <r>    -1.9648     9.2591    83.5691 </r>
       <r>    -1.8378     5.4229    84.2577 </r>
       <r>    -1.7108     7.4241    85.2004 </r>
       <r>    -1.5838     8.8910    86.3293 </r>
       <r>    -1.4569     6.0883    87.1024 </r>
       <r>    -1.3299     5.8466    87.8447 </r>
       <r>    -1.2029     5.8929    88.5930 </r>
       <r>    -1.0759     3.7639    89.0709 </r>
       <r>    -0.9490     7.1567    89.9797 </r>
       <r>    -0.8220     4.0278    90.4911 </r>
       <r>    -0.6950     5.2157    91.1534 </r>
       <r>    -0.5680     5.4339    91.8433 </r>
       <r>    -0.4410    12.9308    93.4852 </r>
       <r>    -0.3141     6.9867    94.3724 </r>
       <r>    -0.1871     4.1317    94.8970 </r>
       <r>    -0.0601     3.5440    95.3470 </r>
       <r>     0.0669     4.1974    95.8800 </r>
       <r>     0.1938     3.6348    96.3415 </r>
       <r>     0.3208     3.4444    96.7789 </r>
       <r>     0.4478     1.7370    96.9994 </r>
       <r>     0.5748     0.1789    97.0221 </r>
       <r>     0.7017     3.2036    97.4289 </r>
       <r>     0.8287     0.5710    97.5014 </r>
       <r>     0.9557     1.0496    97.6347 </r>
       <r>     1.0827     0.5696    97.7070 </r>
       <r>     1.2096     0.4330    97.7620 </r>
       <r>     1.3366     0.5581    97.8329 </r>
       <r>     1.4636     0.6758    97.9187 </r>
       <r>     1.5906     4.0307    98.4305 </r>
       <r>     1.7175     1.2367    98.5875 </r>
       <r>     1.8445     2.5546    98.9119 </r>
       <r>     1.9715     2.7896    99.2661 </r>
       <r>     2.0985     2.1448    99.5384 </r>
       <r>     2.2254     6.8024   100.4022 </r>
       <r>     2.3524     5.1715   101.0588 </r>
       <r>     2.4794     0.7675   101.1563 </r>
       <r>     2.6064     0.4315   101.2111 </r>
       <r>     2.7333     0.8052   101.3133 </r>
       <r>     2.8603     3.3735   101.7417 </r>
       <r>     2.9873     4.6306   102.3296 </r>
       <r>     3.1143     3.5231   102.7770 </r>
       <r>     3.2413     6.8584   103.6478 </r>
       <r>     3.3682     3.7454   104.1234 </r>
       <r>     3.4952     2.4427   104.4336 </r>
       <r>     3.6222     3.5173   104.8802 </r>
       <r>     3.7492     3.5965   105.3369 </r>
       <r>     3.8761     4.5298   105.9120 </r>
       <r>     4.0031     6.5083   106.7384 </r>
       <r>     4.1301     5.3288   107.4151 </r>
       <r>     4.2571     2.3600   107.7147 </r>
       <r>     4.3840     4.1356   108.2398 </r>
       <r>     4.5110     2.9966   108.6203 </r>
       <r>     4.6380     3.5518   109.0713 </r>
       <r>     4.7650     2.7115   109.4156 </r>
       <r>     4.8919     1.3866   109.5917 </r>
       <r>     5.0189     4.1313   110.1163 </r>
       <r>     5.1459     4.7050   110.7137 </r>
       <r>     5.2729     1.6063   110.9176 </r>
       <r>     5.3998     3.0950   111.3106 </r>
       <r>     5.5268     2.7212   111.6562 </r>
       <r>     5.6538     0.7390   111.7500 </r>
       <r>     5.7808     0.8260   111.8549 </r>
       <r>     5.9077     4.6246   112.4421 </r>
       <r>     6.0347     2.5143   112.7613 </r>
       <r>     6.1617     4.2540   113.3015 </r>
       <r>     6.2887     3.8916   113.7956 </r>
       <r>     6.4157     0.9523   113.9166 </r>
       <r>     6.5426     0.6026   113.9931 </r>
       <r>     6.6696     3.7399   114.4679 </r>
       <r>     6.7966     2.8623   114.8314 </r>
       <r>     6.9236     2.4056   115.1368 </r>
       <r>     7.0505     4.3615   115.6906 </r>
       <r>     7.1775     4.8932   116.3120 </r>
       <r>     7.3045     3.4167   116.7458 </r>
       <r>     7.4315     1.2403   116.9033 </r>
       <r>     7.5584     1.2345   117.0600 </r>
       <r>     7.6854     4.4263   117.6221 </r>
       <r>     7.8124     3.7372   118.0966 </r>
       <r>     7.9394     1.5541   118.2940 </r>
       <r>     8.0663     4.0999   118.8145 </r>
       <r>     8.1933     2.6641   119.1528 </r>
       <r>     8.3203     2.1295   119.4232 </r>
       <r>     8.4473     4.5433   120.0001 </r>
       <r>     8.5742     6.6269   120.8416 </r>
       <r>     8.7012     2.6747   121.1812 </r>
       <r>     8.8282     1.8538   121.4166 </r>
       <r>     8.9552     3.6958   121.8859 </r>
       <r>     9.0821     2.3420   122.1832 </r>
       <r>     9.2091     4.0493   122.6974 </r>
       <r>     9.3361     8.0554   123.7202 </r>
       <r>     9.4631     6.4972   124.5452 </r>
       <r>     9.5901     6.5226   125.3735 </r>
       <r>     9.7170     7.6266   126.3418 </r>
       <r>     9.8440    10.4232   127.6653 </r>
       <r>     9.9710     8.4175   128.7342 </r>
       <r>    10.0980     8.9722   129.8734 </r>
       <r>    10.2249    15.8311   131.8836 </r>
       <r>    10.3519    16.4503   133.9724 </r>
       <r>    10.4789    12.6932   135.5841 </r>
       <r>    10.6059    11.3321   137.0230 </r>
       <r>    10.7328    11.8243   138.5244 </r>
       <r>    10.8598     7.5021   139.4770 </r>
       <r>    10.9868     7.9800   140.4903 </r>
       <r>    11.1138     7.1078   141.3928 </r>
       <r>    11.2407     6.9531   142.2757 </r>
       <r>    11.3677     6.3281   143.0792 </r>
       <r>    11.4947     6.5644   143.9127 </r>
       <r>    11.6217     4.7646   144.5177 </r>
       <r>    11.7486     7.2852   145.4427 </r>
       <r>    11.8756     2.4819   145.7579 </r>
       <r>    12.0026     1.4148   145.9375 </r>
       <r>    12.1296     5.5700   146.6448 </r>
       <r>    12.2565     5.0984   147.2921 </r>
       <r>    12.3835     4.6623   147.8841 </r>
       <r>    12.5105     6.1801   148.6689 </r>
       <r>    12.6375    11.8928   150.1789 </r>
       <r>    12.7644     4.9411   150.8064 </r>
       <r>    12.8914     1.5246   150.9999 </r>
       <r>    13.0184     1.5326   151.1945 </r>
       <r>    13.1454     1.7809   151.4207 </r>
       <r>    13.2724     1.8631   151.6572 </r>
       <r>    13.3993     1.8305   151.8897 </r>
       <r>    13.5263     0.8616   151.9991 </r>
       <r>    13.6533     0.0073   152.0000 </r>
       <r>    13.7803     0.0000   152.0000 </r>
       <r>    13.9072     0.0000   152.0000 </r>
       <r>    14.0342     0.0000   152.0000 </r>
       <r>    14.1612     0.0000   152.0000 </r>
       <r>    14.2882     0.0000   152.0000 </r>
       <r>    14.4151     0.0000   152.0000 </r>
       <r>    14.5421     0.0000   152.0000 </r>
       <r>    14.6691     0.0000   152.0000 </r>
       <r>    14.7961     0.0000   152.0000 </r>
       <r>    14.9230     0.0000   152.0000 </r>
       <r>    15.0500     0.0000   152.0000 </r>
       <r>    15.1770     0.0000   152.0000 </r>
      </set>
     </set>
    </array>
   </total>
  </dos>
 </calculation>
 <structure name="finalpos" >
  <crystal>
   <varray name="basis" >
    <v>       4.26620007       0.00000000       0.00000000 </v>
    <v>       0.00000000      39.40950012       0.00000000 </v>
    <v>      -1.42206471       0.00000000       3.18109970 </v>
   </varray>
   <i name="volume">    534.83451311 </i>
   <varray name="rec_basis" >
    <v>       0.23440063       0.00000000       0.10478542 </v>
    <v>       0.00000000       0.02537459       0.00000000 </v>
    <v>       0.00000000       0.00000000       0.31435670 </v>
   </varray>
  </crystal>
  <varray name="positions" >
   <v>       0.99972635       0.00000783       0.00000000 </v>
   <v>       0.33324726       0.00000789       0.00000000 </v>
   <v>       0.49972635       0.03122317       0.00000000 </v>
   <v>       0.83324726       0.03122310       0.00000000 </v>
   <v>       0.99989858       0.06246133       0.00000000 </v>
   <v>       0.33301183       0.06245907       0.00000000 </v>
   <v>       0.49966823       0.09369861       0.00000000 </v>
   <v>       0.83324927       0.09370033       0.00000000 </v>
   <v>       0.99972692       0.12492436       0.00000000 </v>
   <v>       0.33326526       0.12492629       0.00000000 </v>
   <v>       0.49993855       0.15617451       0.00000000 </v>
   <v>       0.83312972       0.15617360       0.00000000 </v>
   <v>       0.99968157       0.18741802       0.00000000 </v>
   <v>       0.33345729       0.18742148       0.00000000 </v>
   <v>       0.49976508       0.21863473       0.00000000 </v>
   <v>       0.83340337       0.21863213       0.00000000 </v>
   <v>       0.99982960       0.24990082       0.00000000 </v>
   <v>       0.33333668       0.24990181       0.00000000 </v>
   <v>       0.49924169       0.28117075       0.00000000 </v>
   <v>       0.83390417       0.28116934       0.00000000 </v>
   <v>       0.00216473       0.31214964       0.00000000 </v>
   <v>       0.33091401       0.31214843       0.00000000 </v>
   <v>       0.50011866       0.34329153       0.00000000 </v>
   <v>       0.83287698       0.34329222       0.00000000 </v>
   <v>       0.00011866       0.68793945       0.00000000 </v>
   <v>       0.33287698       0.68793876       0.00000000 </v>
   <v>       0.50216473       0.71908037       0.00000000 </v>
   <v>       0.83091401       0.71908157       0.00000000 </v>
   <v>       0.99924169       0.75005929       0.00000000 </v>
   <v>       0.33390417       0.75006070       0.00000000 </v>
   <v>       0.49982960       0.78133017       0.00000000 </v>
   <v>       0.83333668       0.78132918       0.00000000 </v>
   <v>       0.99976508       0.81259525       0.00000000 </v>
   <v>       0.33340337       0.81259786       0.00000000 </v>
   <v>       0.49968157       0.84381198       0.00000000 </v>
   <v>       0.83345729       0.84380853       0.00000000 </v>
   <v>       0.99993855       0.87505551       0.00000000 </v>
   <v>       0.33312972       0.87505641       0.00000000 </v>
   <v>       0.49972692       0.90630566       0.00000000 </v>
   <v>       0.83326526       0.90630372       0.00000000 </v>
   <v>       0.99966823       0.93753236       0.00000000 </v>
   <v>       0.33324927       0.93753065       0.00000000 </v>
   <v>       0.49989858       0.96876969       0.00000000 </v>
   <v>       0.83301183       0.96877194       0.00000000 </v>
   <v>       0.92883304       0.37417703       0.00000000 </v>
   <v>       0.40408709       0.37417364       0.00000000 </v>
   <v>       0.42883310       0.65705395       0.00000000 </v>
   <v>       0.90408811       0.65705735       0.00000000 </v>
  </varray>
  <varray name="selective"  type="logical" >
   <v type="logical" >  T  T  F </v>
   <v type="logical" >  T  T  F </v>
   <v type="logical" >  T  T  F </v>
   <v type="logical" >  T  T  F </v>
   <v type="logical" >  T  T  F </v>
   <v type="logical" >  T  T  F </v>
   <v type="logical" >  T  T  F </v>
   <v type="logical" >  T  T  F </v>
   <v type="logical" >  T  T  F </v>
   <v type="logical" >  T  T  F </v>
   <v type="logical" >  T  T  F </v>
   <v type="logical" >  T  T  F </v>
   <v type="logical" >  T  T  F </v>
   <v type="logical" >  T  T  F </v>
   <v type="logical" >  T  T  F </v>
   <v type="logical" >  T  T  F </v>
   <v type="logical" >  T  T  F </v>
   <v type="logical" >  T  T  F </v>
   <v type="logical" >  T  T  F </v>
   <v type="logical" >  T  T  F </v>
   <v type="logical" >  T  T  F </v>
   <v type="logical" >  T  T  F </v>
   <v type="logical" >  T  T  F </v>
   <v type="logical" >  T  T  F </v>
   <v type="logical" >  T  T  F </v>
   <v type="logical" >  T  T  F </v>
   <v type="logical" >  T  T  F </v>
   <v type="logical" >  T  T  F </v>
   <v type="logical" >  T  T  F </v>
   <v type="logical" >  T  T  F </v>
   <v type="logical" >  T  T  F </v>
   <v type="logical" >  T  T  F </v>
   <v type="logical" >  T  T  F </v>
   <v type="logical" >  T  T  F </v>
   <v type="logical" >  T  T  F </v>
   <v type="logical" >  T  T  F </v>
   <v type="logical" >  T  T  F </v>
   <v type="logical" >  T  T  F </v>
   <v type="logical" >  T  T  F </v>
   <v type="logical" >  T  T  F </v>
   <v type="logical" >  T  T  F </v>
   <v type="logical" >  T  T  F </v>
   <v type="logical" >  T  T  F </v>
   <v type="logical" >  T  T  F </v>
   <v type="logical" >  T  T  F </v>
   <v type="logical" >  T  T  F </v>
   <v type="logical" >  T  T  F </v>
   <v type="logical" >  T  T  F </v>
  </varray>
  <varray name="velocities" >
   <v>       0.00000000       0.00000000       0.00000000 </v>
   <v>       0.00000000       0.00000000       0.00000000 </v>
   <v>       0.00000000       0.00000000       0.00000000 </v>
   <v>       0.00000000       0.00000000       0.00000000 </v>
   <v>       0.00000000       0.00000000       0.00000000 </v>
   <v>       0.00000000       0.00000000       0.00000000 </v>
   <v>       0.00000000       0.00000000       0.00000000 </v>
   <v>       0.00000000       0.00000000       0.00000000 </v>
   <v>       0.00000000       0.00000000       0.00000000 </v>
   <v>       0.00000000       0.00000000       0.00000000 </v>
   <v>       0.00000000       0.00000000       0.00000000 </v>
   <v>       0.00000000       0.00000000       0.00000000 </v>
   <v>       0.00000000       0.00000000       0.00000000 </v>
   <v>       0.00000000       0.00000000       0.00000000 </v>
   <v>       0.00000000       0.00000000       0.00000000 </v>
   <v>       0.00000000       0.00000000       0.00000000 </v>
   <v>       0.00000000       0.00000000       0.00000000 </v>
   <v>       0.00000000       0.00000000       0.00000000 </v>
   <v>       0.00000000       0.00000000       0.00000000 </v>
   <v>       0.00000000       0.00000000       0.00000000 </v>
   <v>       0.00000000       0.00000000       0.00000000 </v>
   <v>       0.00000000       0.00000000       0.00000000 </v>
   <v>       0.00000000       0.00000000       0.00000000 </v>
   <v>       0.00000000       0.00000000       0.00000000 </v>
   <v>       0.00000000       0.00000000       0.00000000 </v>
   <v>       0.00000000       0.00000000       0.00000000 </v>
   <v>       0.00000000       0.00000000       0.00000000 </v>
   <v>       0.00000000       0.00000000       0.00000000 </v>
   <v>       0.00000000       0.00000000       0.00000000 </v>
   <v>       0.00000000       0.00000000       0.00000000 </v>
   <v>       0.00000000       0.00000000       0.00000000 </v>
   <v>       0.00000000       0.00000000       0.00000000 </v>
   <v>       0.00000000       0.00000000       0.00000000 </v>
   <v>       0.00000000       0.00000000       0.00000000 </v>
   <v>       0.00000000       0.00000000       0.00000000 </v>
   <v>       0.00000000       0.00000000       0.00000000 </v>
   <v>       0.00000000       0.00000000       0.00000000 </v>
   <v>       0.00000000       0.00000000       0.00000000 </v>
   <v>       0.00000000       0.00000000       0.00000000 </v>
   <v>       0.00000000       0.00000000       0.00000000 </v>
   <v>       0.00000000       0.00000000       0.00000000 </v>
   <v>       0.00000000       0.00000000       0.00000000 </v>
   <v>       0.00000000       0.00000000       0.00000000 </v>
   <v>       0.00000000       0.00000000       0.00000000 </v>
   <v>       0.00000000       0.00000000       0.00000000 </v>
   <v>       0.00000000       0.00000000       0.00000000 </v>
   <v>       0.00000000       0.00000000       0.00000000 </v>
   <v>       0.00000000       0.00000000       0.00000000 </v>
  </varray>
  <nose>
   <v>      -3.00000000       0.00000000       0.00010000       0.00010000 </v>
  </nose>
 </structure>
</modeling>
