       N       E                     dE             d eps       ncg     rms          rms(c)
RMM:   1     0.216720537842E+04    0.21672E+04   -0.67653E+04  2432   0.909E+02
RMM:   2     0.440037094518E+03   -0.17272E+04   -0.18361E+04  2432   0.234E+02
RMM:   3    -0.145454764365E+03   -0.58549E+03   -0.57675E+03  2432   0.140E+02
RMM:   4    -0.350327131101E+03   -0.20487E+03   -0.16483E+03  2432   0.898E+01
RMM:   5    -0.404230520097E+03   -0.53903E+02   -0.47592E+02  2432   0.489E+01
RMM:   6    -0.421728215310E+03   -0.17498E+02   -0.15329E+02  2432   0.288E+01
RMM:   7    -0.427576776370E+03   -0.58486E+01   -0.54237E+01  2432   0.168E+01
RMM:   8    -0.429812326935E+03   -0.22356E+01   -0.20482E+01  2432   0.104E+01
RMM:   9    -0.431168934341E+03   -0.13566E+01   -0.13122E+01  5401   0.632E+00
RMM:  10    -0.431297914110E+03   -0.12898E+00   -0.11344E+00  6069   0.174E+00
RMM:  11    -0.431301782317E+03   -0.38682E-02   -0.29773E-02  5287   0.264E-01
RMM:  12    -0.431302299429E+03   -0.51711E-03   -0.48800E-03  4187   0.851E-02    0.442E+01
RMM:  13    -0.340779474619E+03    0.90523E+02   -0.21347E+02  4877   0.280E+01    0.381E+01
RMM:  14    -0.435128451369E+03   -0.94349E+02   -0.65024E+01  4922   0.100E+01    0.621E+01
RMM:  15    -0.318201030776E+03    0.11693E+03   -0.23022E+01  4881   0.876E+00    0.287E+01
RMM:  16    -0.287515659842E+03    0.30685E+02   -0.16107E+01  4865   0.985E+00    0.207E+01
RMM:  17    -0.275635924861E+03    0.11880E+02   -0.29255E+00  4878   0.380E+00    0.191E+01
RMM:  18    -0.273678966044E+03    0.19570E+01   -0.24133E-01  4903   0.128E+00    0.186E+01
RMM:  19    -0.273296855472E+03    0.38211E+00   -0.30902E-01  4869   0.142E+00    0.171E+01
RMM:  20    -0.280478568018E+03   -0.71817E+01   -0.10831E+00  4885   0.233E+00    0.183E+01
RMM:  21    -0.317438630264E+03   -0.36960E+02   -0.11791E+01  4864   0.733E+00    0.194E+01
RMM:  22    -0.337813865140E+03   -0.20375E+02   -0.59087E+00  4882   0.557E+00    0.192E+01
RMM:  23    -0.386061910482E+03   -0.48248E+02   -0.38586E+01  4868   0.118E+01    0.215E+01
RMM:  24    -0.411597724693E+03   -0.25536E+02   -0.48702E+01  4879   0.916E+00    0.209E+01
RMM:  25    -0.416270675754E+03   -0.46730E+01   -0.77575E+00  4876   0.438E+00    0.191E+01
RMM:  26    -0.416717730141E+03   -0.44705E+00   -0.31660E+00  4887   0.340E+00    0.156E+01
RMM:  27    -0.415659296009E+03    0.10584E+01   -0.10414E+00  4911   0.225E+00    0.126E+01
RMM:  28    -0.416125774892E+03   -0.46648E+00   -0.16202E-01  4898   0.909E-01    0.117E+01
RMM:  29    -0.417056649715E+03   -0.93087E+00   -0.36410E-01  4888   0.132E+00    0.801E+00
RMM:  30    -0.418463881323E+03   -0.14072E+01   -0.61306E-01  4878   0.164E+00    0.664E+00
RMM:  31    -0.420295672669E+03   -0.18318E+01   -0.11028E+00  4887   0.226E+00    0.375E+00
RMM:  32    -0.421044330732E+03   -0.74866E+00   -0.97018E-01  4908   0.192E+00    0.774E+00
RMM:  33    -0.421225186133E+03   -0.18086E+00   -0.49945E-01  4905   0.151E+00    0.846E+00
RMM:  34    -0.420758393933E+03    0.46679E+00   -0.24417E-01  4883   0.979E-01    0.551E+00
RMM:  35    -0.421791751400E+03   -0.10334E+01   -0.35339E-01  4881   0.125E+00    0.527E+00
RMM:  36    -0.422385327772E+03   -0.59358E+00   -0.24955E-01  4889   0.113E+00    0.309E+00
RMM:  37    -0.422604623432E+03   -0.21930E+00   -0.10900E-01  4932   0.789E-01    0.140E+00
RMM:  38    -0.422743050763E+03   -0.13843E+00   -0.22383E-02  4895   0.340E-01    0.781E-01
RMM:  39    -0.422795561641E+03   -0.52511E-01   -0.69025E-03  4881   0.170E-01    0.457E-01
RMM:  40    -0.422815648696E+03   -0.20087E-01   -0.25185E-03  4677   0.966E-02    0.271E-01
RMM:  41    -0.422816575104E+03   -0.92641E-03   -0.97415E-04  4258   0.631E-02    0.128E-01
RMM:  42    -0.422816667827E+03   -0.92724E-04   -0.42676E-04  3766   0.443E-02
   1 F= -.42883801E+03 E0= -.42883738E+03  d E =-.428838E+03  mag=    -0.0009
       N       E                     dE             d eps       ncg     rms          rms(c)
RMM:   1    -0.422750520880E+03    0.66054E-01   -0.14308E+01  4864   0.899E+00    0.111E+00
RMM:   2    -0.422740268168E+03    0.10253E-01   -0.87663E-02  4865   0.625E-01    0.747E-01
RMM:   3    -0.422729338189E+03    0.10930E-01   -0.18725E-02  4881   0.253E-01    0.719E-01
RMM:   4    -0.422720949194E+03    0.83890E-02   -0.11846E-02  4887   0.199E-01    0.320E-01
RMM:   5    -0.422714774242E+03    0.61750E-02   -0.11131E-03  4750   0.673E-02    0.193E-01
RMM:   6    -0.422713784617E+03    0.98963E-03   -0.33079E-04  3660   0.330E-02    0.124E-01
RMM:   7    -0.422713672250E+03    0.11237E-03   -0.38207E-04  3854   0.340E-02    0.129E-01
RMM:   8    -0.422713461773E+03    0.21048E-03   -0.12633E-04  3215   0.217E-02    0.674E-02
RMM:   9    -0.422713364983E+03    0.96790E-04   -0.14422E-05  2810   0.961E-03
   2 F= -.42873452E+03 E0= -.42873146E+03  d E =0.103489E+00  mag=    -0.0005
       N       E                     dE             d eps       ncg     rms          rms(c)
RMM:   1    -0.422849986085E+03   -0.13652E+00   -0.81565E+00  4864   0.683E+00    0.774E-01
RMM:   2    -0.422835668521E+03    0.14318E-01   -0.42396E-02  4864   0.443E-01    0.450E-01
RMM:   3    -0.422842371088E+03   -0.67026E-02   -0.15125E-02  4910   0.224E-01    0.319E-01
RMM:   4    -0.422830738889E+03    0.11632E-01   -0.31542E-03  4860   0.990E-02    0.124E-01
RMM:   5    -0.422830231009E+03    0.50788E-03   -0.76317E-04  4177   0.486E-02    0.534E-02
RMM:   6    -0.422830227944E+03    0.30649E-05   -0.10989E-04  3182   0.216E-02
   3 F= -.42885150E+03 E0= -.42885009E+03  d E =-.134933E-01  mag=    -0.0004
       N       E                     dE             d eps       ncg     rms          rms(c)
RMM:   1    -0.422829093143E+03    0.11379E-02   -0.57914E-01  4867   0.190E+00    0.242E-01
RMM:   2    -0.422831252130E+03   -0.21590E-02   -0.63107E-03  4867   0.156E-01    0.237E-01
RMM:   3    -0.422827993809E+03    0.32583E-02   -0.90707E-04  4373   0.551E-02    0.962E-02
RMM:   4    -0.422827923178E+03    0.70630E-04   -0.27906E-04  3648   0.339E-02
   4 F= -.42884934E+03 E0= -.42884806E+03  d E =0.215981E-02  mag=    -0.0003
       N       E                     dE             d eps       ncg     rms          rms(c)
RMM:   1    -0.422831373185E+03   -0.33794E-02   -0.27247E-01  4867   0.130E+00    0.141E-01
RMM:   2    -0.422831358103E+03    0.15082E-04   -0.21830E-03  4855   0.969E-02    0.130E-01
RMM:   3    -0.422831101031E+03    0.25707E-03   -0.27828E-04  3649   0.322E-02    0.796E-02
RMM:   4    -0.422830850341E+03    0.25069E-03   -0.13408E-04  3107   0.240E-02    0.244E-02
RMM:   5    -0.422830841711E+03    0.86297E-05   -0.24722E-05  2958   0.125E-02
   5 F= -.42885216E+03 E0= -.42885089E+03  d E =-.658750E-03  mag=    -0.0003
       N       E                     dE             d eps       ncg     rms          rms(c)
RMM:   1    -0.422830831732E+03    0.18609E-04   -0.17388E-04  3220   0.330E-02    0.524E-03
RMM:   2    -0.422830832340E+03   -0.60849E-06   -0.54873E-06  2588   0.752E-03
   6 F= -.42885215E+03 E0= -.42885081E+03  d E =-.646888E-03  mag=    -0.0002
       N       E                     dE             d eps       ncg     rms          rms(c)
RMM:   1    -0.422830833883E+03   -0.21509E-05   -0.26455E-05  2726   0.128E-02    0.155E-03
RMM:   2    -0.422830834028E+03   -0.14527E-06   -0.24700E-08  1031   0.339E-03
   7 F= -.42885215E+03 E0= -.42885081E+03  d E =-.649616E-03  mag=    -0.0002
       N       E                     dE             d eps       ncg     rms          rms(c)
RMM:   1    -0.422831044160E+03   -0.21028E-03   -0.74923E-02  4872   0.632E-01    0.114E-01
RMM:   2    -0.422832146022E+03   -0.11019E-02   -0.15818E-03  4512   0.706E-02    0.155E-01
RMM:   3    -0.422830819561E+03    0.13265E-02   -0.25447E-04  3613   0.288E-02    0.407E-02
RMM:   4    -0.422830826344E+03   -0.67832E-05   -0.43346E-05  2946   0.149E-02
   8 F= -.42885219E+03 E0= -.42885055E+03  d E =-.377192E-04  mag=    -0.0002
       N       E                     dE             d eps       ncg     rms          rms(c)
RMM:   1    -0.422830831701E+03   -0.12140E-04   -0.17244E-03  4459   0.949E-02    0.102E-02
RMM:   2    -0.422830833106E+03   -0.14047E-05   -0.12546E-05  2390   0.903E-03
   9 F= -.42885219E+03 E0= -.42885053E+03  d E =-.378976E-04  mag=    -0.0002
       N       E                     dE             d eps       ncg     rms          rms(c)
RMM:   1    -0.422831065551E+03   -0.23385E-03   -0.37068E-02  4845   0.442E-01    0.991E-02
RMM:   2    -0.422832680349E+03   -0.16148E-02   -0.12970E-03  4436   0.608E-02    0.185E-01
RMM:   3    -0.422830843641E+03    0.18367E-02   -0.27473E-04  3663   0.292E-02    0.339E-02
RMM:   4    -0.422830864355E+03   -0.20714E-04   -0.40904E-05  2855   0.147E-02
  10 F= -.42885230E+03 E0= -.42885037E+03  d E =-.109898E-03  mag=    -0.0001
       N       E                     dE             d eps       ncg     rms          rms(c)
RMM:   1    -0.422833631486E+03   -0.27878E-02   -0.33391E-01  4879   0.133E+00    0.398E-01
RMM:   2    -0.422857860785E+03   -0.24229E-01   -0.18513E-02  4842   0.223E-01    0.585E-01
RMM:   3    -0.422831467269E+03    0.26394E-01   -0.41821E-03  4705   0.109E-01    0.222E-01
RMM:   4    -0.422831021853E+03    0.44542E-03   -0.95757E-04  4198   0.540E-02    0.885E-02
RMM:   5    -0.422831319945E+03   -0.29809E-03   -0.34853E-04  3743   0.329E-02    0.161E-01
RMM:   6    -0.422830852032E+03    0.46791E-03   -0.10469E-04  3140   0.211E-02    0.275E-02
RMM:   7    -0.422830855745E+03   -0.37137E-05   -0.12450E-05  2601   0.887E-03
  11 F= -.42885252E+03 E0= -.42884972E+03  d E =-.333928E-03  mag=    -0.0001
       N       E                     dE             d eps       ncg     rms          rms(c)
RMM:   1    -0.422839462882E+03   -0.86109E-02   -0.13372E+00  4889   0.265E+00    0.523E-01
RMM:   2    -0.422871134956E+03   -0.31672E-01   -0.34776E-02  4860   0.315E-01    0.807E-01
RMM:   3    -0.422831356918E+03    0.39778E-01   -0.62553E-03  4786   0.138E-01    0.209E-01
RMM:   4    -0.422832823795E+03   -0.14669E-02   -0.86151E-04  4370   0.644E-02    0.261E-01
RMM:   5    -0.422831437751E+03    0.13860E-02   -0.60728E-04  4081   0.411E-02    0.173E-01
RMM:   6    -0.422830970663E+03    0.46709E-03   -0.15234E-04  3311   0.258E-02    0.198E-02
RMM:   7    -0.422831014018E+03   -0.43356E-04   -0.33915E-05  2876   0.126E-02
  12 F= -.42885313E+03 E0= -.42884922E+03  d E =-.943116E-03  mag=    -0.0000
       N       E                     dE             d eps       ncg     rms          rms(c)
RMM:   1    -0.422848426809E+03   -0.17456E-01   -0.53321E+00  4893   0.525E+00    0.105E+00
RMM:   2    -0.423016421133E+03   -0.16799E+00   -0.13803E-01  4864   0.624E-01    0.166E+00
RMM:   3    -0.422830082150E+03    0.18634E+00   -0.26188E-02  4873   0.280E-01    0.409E-01
RMM:   4    -0.422830460632E+03   -0.37848E-03   -0.50082E-03  4779   0.132E-01    0.193E-01
RMM:   5    -0.422829005812E+03    0.14548E-02   -0.13423E-03  4521   0.649E-02    0.174E-01
RMM:   6    -0.422828452277E+03    0.55353E-03   -0.21048E-04  3396   0.345E-02    0.249E-01
RMM:   7    -0.422828641179E+03   -0.18890E-03   -0.57234E-04  3792   0.547E-02    0.522E-02
RMM:   8    -0.422828923570E+03   -0.28239E-03   -0.56340E-05  3021   0.218E-02    0.291E-02
RMM:   9    -0.422828977180E+03   -0.53610E-04   -0.12560E-05  2774   0.108E-02
  13 F= -.42885194E+03 E0= -.42884786E+03  d E =0.244337E-03  mag=    -0.0003
       N       E                     dE             d eps       ncg     rms          rms(c)
RMM:   1    -0.422849762966E+03   -0.20839E-01   -0.48071E+00  4889   0.497E+00    0.862E-01
RMM:   2    -0.422959955470E+03   -0.11019E+00   -0.11206E-01  4864   0.586E-01    0.214E+00
RMM:   3    -0.422831726112E+03    0.12823E+00   -0.20739E-02  4863   0.253E-01    0.418E-01
RMM:   4    -0.422834241641E+03   -0.25155E-02   -0.31331E-03  4810   0.126E-01    0.246E-01
RMM:   5    -0.422831045353E+03    0.31963E-02   -0.83409E-04  4423   0.518E-02    0.647E-02
RMM:   6    -0.422831052958E+03   -0.76048E-05   -0.77514E-05  3040   0.211E-02
  14 F= -.42885322E+03 E0= -.42884913E+03  d E =-.103119E-02  mag=    -0.0002
       N       E                     dE             d eps       ncg     rms          rms(c)
RMM:   1    -0.422835128727E+03   -0.40834E-02   -0.11894E+00  4888   0.248E+00    0.354E-01
RMM:   2    -0.422842350849E+03   -0.72221E-02   -0.18123E-02  4861   0.239E-01    0.673E-01
RMM:   3    -0.422832430789E+03    0.99201E-02   -0.25903E-03  4661   0.919E-02    0.202E-01
RMM:   4    -0.422831320022E+03    0.11108E-02   -0.53423E-04  4112   0.539E-02    0.108E-01
RMM:   5    -0.422831041223E+03    0.27880E-03   -0.13680E-04  3214   0.262E-02    0.165E-01
RMM:   6    -0.422831283417E+03   -0.24219E-03   -0.13170E-04  3175   0.284E-02    0.757E-02
RMM:   7    -0.422831297374E+03   -0.13958E-04   -0.54270E-05  2961   0.171E-02
  15 F= -.42885387E+03 E0= -.42884997E+03  d E =-.168297E-02  mag=    -0.0002
       N       E                     dE             d eps       ncg     rms          rms(c)
RMM:   1    -0.422831094832E+03    0.18858E-03   -0.30047E-01  4887   0.124E+00    0.133E-01
RMM:   2    -0.422830887619E+03    0.20721E-03   -0.26600E-03  4636   0.998E-02    0.946E-02
RMM:   3    -0.422830837021E+03    0.50598E-04   -0.18632E-04  3390   0.281E-02
  16 F= -.42885361E+03 E0= -.42884982E+03  d E =-.142076E-02  mag=     0.0011
       N       E                     dE             d eps       ncg     rms          rms(c)
RMM:   1    -0.422830927315E+03   -0.39696E-04   -0.53607E-02  4849   0.525E-01    0.144E-01
RMM:   2    -0.422829843157E+03    0.10842E-02   -0.97123E-04  4095   0.662E-02    0.285E-01
RMM:   3    -0.422830537687E+03   -0.69453E-03   -0.15550E-03  4262   0.897E-02    0.801E-02
RMM:   4    -0.422831015390E+03   -0.47770E-03   -0.82116E-05  3035   0.289E-02    0.383E-02
RMM:   5    -0.422831076201E+03   -0.60811E-04   -0.66480E-05  2954   0.194E-02
  17 F= -.42885376E+03 E0= -.42884997E+03  d E =-.157684E-02  mag=    -0.0005
       N       E                     dE             d eps       ncg     rms          rms(c)
RMM:   1    -0.422831137618E+03   -0.12223E-03   -0.13380E-04  3144   0.269E-02    0.605E-03
RMM:   2    -0.422831142187E+03   -0.45693E-05   -0.57300E-06  2274   0.718E-03
  18 F= -.42885383E+03 E0= -.42885004E+03  d E =-.697210E-04  mag=    -0.0005
       N       E                     dE             d eps       ncg     rms          rms(c)
RMM:   1    -0.422831139446E+03   -0.18281E-05   -0.10459E-03  4154   0.737E-02    0.122E-02
RMM:   2    -0.422831119741E+03    0.19705E-04   -0.12153E-05  2558   0.855E-03
  19 F= -.42885382E+03 E0= -.42885003E+03  d E =-.584667E-04  mag=    -0.0004
       N       E                     dE             d eps       ncg     rms          rms(c)
RMM:   1    -0.422831117746E+03    0.21699E-04   -0.41279E-03  4519   0.145E-01    0.257E-02
RMM:   2    -0.422831082315E+03    0.35431E-04   -0.35862E-05  2877   0.138E-02
  20 F= -.42885381E+03 E0= -.42885005E+03  d E =-.433836E-04  mag=    -0.0002
       N       E                     dE             d eps       ncg     rms          rms(c)
RMM:   1    -0.422831015683E+03    0.10206E-03   -0.16442E-02  4806   0.289E-01    0.534E-02
RMM:   2    -0.422830904531E+03    0.11115E-03   -0.16000E-04  3233   0.265E-02    0.962E-02
RMM:   3    -0.422830979264E+03   -0.74734E-04   -0.25437E-05  2772   0.130E-02
  21 F= -.42885375E+03 E0= -.42885001E+03  d E =0.151310E-04  mag=    -0.0004
       N       E                     dE             d eps       ncg     rms          rms(c)
RMM:   1    -0.422831069395E+03   -0.16486E-03   -0.42067E-05  2946   0.151E-02    0.279E-02
RMM:   2    -0.422831067191E+03    0.22039E-05   -0.12099E-05  2523   0.908E-03
  22 F= -.42885384E+03 E0= -.42885009E+03  d E =-.880176E-04  mag=    -0.0001
       N       E                     dE             d eps       ncg     rms          rms(c)
RMM:   1    -0.422831216751E+03   -0.14736E-03   -0.13562E-04  2993   0.289E-02    0.467E-02
RMM:   2    -0.422831068019E+03    0.14873E-03   -0.63627E-05  2996   0.187E-02    0.120E-01
RMM:   3    -0.422831220219E+03   -0.15220E-03   -0.95215E-05  3030   0.233E-02    0.300E-02
RMM:   4    -0.422831251050E+03   -0.30832E-04   -0.18476E-05  2666   0.107E-02
  23 F= -.42885402E+03 E0= -.42885026E+03  d E =-.272155E-03  mag=    -0.0005
       N       E                     dE             d eps       ncg     rms          rms(c)
RMM:   1    -0.422831582002E+03   -0.36178E-03   -0.52345E-04  4108   0.558E-02    0.643E-03
RMM:   2    -0.422831578152E+03    0.38501E-05   -0.51186E-06  2089   0.668E-03
  24 F= -.42885435E+03 E0= -.42885058E+03  d E =-.599824E-03  mag=    -0.0004
       N       E                     dE             d eps       ncg     rms          rms(c)
RMM:   1    -0.422832190791E+03   -0.60879E-03   -0.21620E-03  4756   0.113E-01    0.179E-02
RMM:   2    -0.422832166993E+03    0.23797E-04   -0.17029E-05  2777   0.985E-03
  25 F= -.42885494E+03 E0= -.42885117E+03  d E =-.118981E-02  mag=    -0.0003
       N       E                     dE             d eps       ncg     rms          rms(c)
RMM:   1    -0.422833296116E+03   -0.11053E-02   -0.86293E-03  4854   0.224E-01    0.372E-02
RMM:   2    -0.422833239899E+03    0.56218E-04   -0.60910E-05  2985   0.181E-02
  26 F= -.42885601E+03 E0= -.42885223E+03  d E =-.226508E-02  mag=    -0.0000
       N       E                     dE             d eps       ncg     rms          rms(c)
RMM:   1    -0.422835011079E+03   -0.17150E-02   -0.34377E-02  4866   0.447E-01    0.815E-02
RMM:   2    -0.422834776029E+03    0.23505E-03   -0.27552E-04  3469   0.377E-02    0.133E-01
RMM:   3    -0.422834856826E+03   -0.80798E-04   -0.35480E-05  2953   0.167E-02
  27 F= -.42885763E+03 E0= -.42885379E+03  d E =-.388707E-02  mag=    -0.0007
       N       E                     dE             d eps       ncg     rms          rms(c)
RMM:   1    -0.422836507359E+03   -0.17313E-02   -0.13313E-01  4867   0.883E-01    0.112E-01
RMM:   2    -0.422836354408E+03    0.15295E-03   -0.10454E-03  4610   0.678E-02    0.718E-02
RMM:   3    -0.422836388903E+03   -0.34495E-04   -0.13899E-04  3206   0.255E-02
  28 F= -.42885918E+03 E0= -.42885471E+03  d E =-.543063E-02  mag=    -0.0015
       N       E                     dE             d eps       ncg     rms          rms(c)
RMM:   1    -0.422836141348E+03    0.21306E-03   -0.52925E-03  4835   0.176E-01    0.126E-01
RMM:   2    -0.422835553384E+03    0.58796E-03   -0.46634E-04  3642   0.478E-02    0.293E-01
RMM:   3    -0.422835929934E+03   -0.37655E-03   -0.94736E-04  4027   0.712E-02    0.763E-02
RMM:   4    -0.422836174835E+03   -0.24490E-03   -0.66991E-05  3020   0.245E-02    0.341E-02
RMM:   5    -0.422836238718E+03   -0.63884E-04   -0.36697E-05  2962   0.154E-02
  29 F= -.42885903E+03 E0= -.42885490E+03  d E =-.528294E-02  mag=    -0.0003
       N       E                     dE             d eps       ncg     rms          rms(c)
RMM:   1    -0.422836266756E+03   -0.91921E-04   -0.10415E-03  4493   0.779E-02    0.123E-02
RMM:   2    -0.422836279007E+03   -0.12251E-04   -0.13834E-05  2684   0.895E-03
  30 F= -.42885907E+03 E0= -.42885481E+03  d E =-.532217E-02  mag=    -0.0003
       N       E                     dE             d eps       ncg     rms          rms(c)
RMM:   1    -0.422836280791E+03   -0.14036E-04   -0.13086E-04  3011   0.290E-02    0.173E-02
RMM:   2    -0.422836265472E+03    0.15319E-04   -0.12758E-05  2752   0.933E-03
  31 F= -.42885906E+03 E0= -.42885485E+03  d E =-.530824E-02  mag=    -0.0003
       N       E                     dE             d eps       ncg     rms          rms(c)
RMM:   1    -0.422836487796E+03   -0.20700E-03   -0.22452E-03  4666   0.117E-01    0.299E-02
RMM:   2    -0.422836635112E+03   -0.14732E-03   -0.10234E-04  3161   0.191E-02    0.668E-02
RMM:   3    -0.422836437767E+03    0.19734E-03   -0.18521E-05  2789   0.991E-03    0.638E-02
RMM:   4    -0.422836449828E+03   -0.12061E-04   -0.24247E-05  2668   0.119E-02
  32 F= -.42885923E+03 E0= -.42885505E+03  d E =-.176636E-03  mag=    -0.0002
       N       E                     dE             d eps       ncg     rms          rms(c)
RMM:   1    -0.422836953223E+03   -0.51546E-03   -0.20347E-02  4864   0.352E-01    0.433E-02
RMM:   2    -0.422837029626E+03   -0.76404E-04   -0.18811E-04  3327   0.286E-02
  33 F= -.42885979E+03 E0= -.42885571E+03  d E =-.733319E-03  mag=    -0.0001
       N       E                     dE             d eps       ncg     rms          rms(c)
RMM:   1    -0.422837695465E+03   -0.74224E-03   -0.81731E-02  4870   0.705E-01    0.126E-01
RMM:   2    -0.422839891345E+03   -0.21959E-02   -0.16981E-03  4728   0.736E-02    0.197E-01
RMM:   3    -0.422837386828E+03    0.25045E-02   -0.33688E-04  3844   0.327E-02    0.624E-02
RMM:   4    -0.422837348670E+03    0.38159E-04   -0.11678E-04  3129   0.225E-02
  34 F= -.42886006E+03 E0= -.42885552E+03  d E =-.100595E-02  mag=     0.0006
       N       E                     dE             d eps       ncg     rms          rms(c)
RMM:   1    -0.422837791031E+03   -0.40420E-03   -0.32615E-01  4875   0.141E+00    0.302E-01
RMM:   2    -0.422849634419E+03   -0.11843E-01   -0.92319E-03  4859   0.170E-01    0.534E-01
RMM:   3    -0.422835725623E+03    0.13909E-01   -0.18722E-03  4543   0.780E-02    0.371E-01
RMM:   4    -0.422836155675E+03   -0.43005E-03   -0.17508E-04  3412   0.339E-02    0.320E-01
RMM:   5    -0.422835772295E+03    0.38338E-03   -0.14202E-03  4342   0.801E-02    0.163E-01
RMM:   6    -0.422836955732E+03   -0.11834E-02   -0.71987E-04  4165   0.605E-02    0.201E-01
RMM:   7    -0.422836374682E+03    0.58105E-03   -0.18794E-04  3304   0.305E-02    0.343E-02
RMM:   8    -0.422836539912E+03   -0.16523E-03   -0.23411E-05  2950   0.136E-02    0.238E-02
RMM:   9    -0.422836580397E+03   -0.40486E-04   -0.32898E-06  1985   0.572E-03
  35 F= -.42885920E+03 E0= -.42885419E+03  d E =-.144372E-03  mag=    -0.0013
       N       E                     dE             d eps       ncg     rms          rms(c)
RMM:   1    -0.422837998314E+03   -0.14584E-02   -0.19870E-01  4874   0.110E+00    0.152E-01
RMM:   2    -0.422842458913E+03   -0.44606E-02   -0.30712E-03  4839   0.103E-01    0.492E-01
RMM:   3    -0.422837361820E+03    0.50971E-02   -0.64213E-04  4185   0.472E-02    0.887E-02
RMM:   4    -0.422837423241E+03   -0.61421E-04   -0.12054E-04  3086   0.286E-02
  36 F= -.42886012E+03 E0= -.42885533E+03  d E =-.106009E-02  mag=    -0.0019
       N       E                     dE             d eps       ncg     rms          rms(c)
RMM:   1    -0.422837729491E+03   -0.36767E-03   -0.14277E-02  4834   0.282E-01    0.112E-01
RMM:   2    -0.422838252795E+03   -0.52330E-03   -0.71155E-04  4128   0.523E-02    0.281E-01
RMM:   3    -0.422838282151E+03   -0.29357E-04   -0.41440E-05  3009   0.197E-02
  37 F= -.42886097E+03 E0= -.42885740E+03  d E =-.855113E-03  mag=    -0.0005
       N       E                     dE             d eps       ncg     rms          rms(c)
RMM:   1    -0.422837606781E+03    0.64601E-03   -0.57158E-04  3802   0.572E-02    0.126E-01
RMM:   2    -0.422845529351E+03   -0.79226E-02   -0.20508E-03  4555   0.818E-02    0.612E-01
RMM:   3    -0.422837437145E+03    0.80922E-02   -0.84899E-04  4277   0.528E-02    0.182E-01
RMM:   4    -0.422837352560E+03    0.84584E-04   -0.18626E-04  3345   0.334E-02
  38 F= -.42886004E+03 E0= -.42885537E+03  d E =0.745580E-04  mag=     0.0000
       N       E                     dE             d eps       ncg     rms          rms(c)
RMM:   1    -0.422837465407E+03   -0.28263E-04   -0.63723E-05  3002   0.216E-02    0.365E-02
RMM:   2    -0.422837990623E+03   -0.52522E-03   -0.95750E-05  3096   0.183E-02    0.141E-01
RMM:   3    -0.422837529334E+03    0.46129E-03   -0.51750E-05  2906   0.142E-02    0.333E-02
RMM:   4    -0.422837546463E+03   -0.17129E-04   -0.93034E-06  2253   0.805E-03
  39 F= -.42886024E+03 E0= -.42885551E+03  d E =-.119184E-03  mag=    -0.0001
       N       E                     dE             d eps       ncg     rms          rms(c)
RMM:   1    -0.422837652321E+03   -0.12299E-03   -0.99278E-05  3033   0.243E-02    0.509E-03
RMM:   2    -0.422837679472E+03   -0.27152E-04   -0.42786E-06  2201   0.670E-03
  40 F= -.42886037E+03 E0= -.42885560E+03  d E =-.251873E-03  mag=    -0.0001
       N       E                     dE             d eps       ncg     rms          rms(c)
RMM:   1    -0.422837717918E+03   -0.65597E-04   -0.41482E-04  3599   0.490E-02    0.919E-03
RMM:   2    -0.422837738753E+03   -0.20835E-04   -0.90970E-06  2758   0.822E-03
  41 F= -.42886043E+03 E0= -.42885569E+03  d E =-.310515E-03  mag=    -0.0002
       N       E                     dE             d eps       ncg     rms          rms(c)
RMM:   1    -0.422837803423E+03   -0.85505E-04   -0.16350E-03  4532   0.961E-02    0.239E-02
RMM:   2    -0.422837786922E+03    0.16501E-04   -0.23786E-05  2865   0.118E-02
  42 F= -.42886047E+03 E0= -.42885571E+03  d E =-.357401E-03  mag=    -0.0002
       N       E                     dE             d eps       ncg     rms          rms(c)
RMM:   1    -0.422837934504E+03   -0.13108E-03   -0.65394E-03  4799   0.191E-01    0.421E-02
RMM:   2    -0.422838006195E+03   -0.71691E-04   -0.75392E-05  3014   0.200E-02
  43 F= -.42886069E+03 E0= -.42885552E+03  d E =-.574100E-03  mag=    -0.0007
       N       E                     dE             d eps       ncg     rms          rms(c)
RMM:   1    -0.422838267822E+03   -0.33332E-03   -0.25909E-02  4860   0.380E-01    0.143E-01
RMM:   2    -0.422841174291E+03   -0.29065E-02   -0.16576E-03  4526   0.714E-02    0.339E-01
RMM:   3    -0.422837909792E+03    0.32645E-02   -0.23734E-04  3515   0.329E-02    0.322E-01
RMM:   4    -0.422837907425E+03    0.23665E-05   -0.80789E-04  4020   0.633E-02
  44 F= -.42886059E+03 E0= -.42885603E+03  d E =-.470181E-03  mag=     0.0005
       N       E                     dE             d eps       ncg     rms          rms(c)
RMM:   1    -0.422838202353E+03   -0.29256E-03   -0.61254E-03  4830   0.195E-01    0.843E-02
RMM:   2    -0.422841016133E+03   -0.28138E-02   -0.74811E-04  4195   0.462E-02    0.381E-01
RMM:   3    -0.422838007965E+03    0.30082E-02   -0.32771E-04  3740   0.335E-02    0.886E-02
RMM:   4    -0.422838128020E+03   -0.12006E-03   -0.32160E-05  2850   0.162E-02    0.530E-02
RMM:   5    -0.422838182821E+03   -0.54801E-04   -0.26806E-05  2925   0.123E-02
  45 F= -.42886085E+03 E0= -.42885595E+03  d E =-.260186E-03  mag=     0.0002
       N       E                     dE             d eps       ncg     rms          rms(c)
RMM:   1    -0.422838202431E+03   -0.74411E-04   -0.14088E-03  4600   0.945E-02    0.153E-02
RMM:   2    -0.422838221249E+03   -0.18818E-04   -0.19356E-05  2770   0.999E-03
  46 F= -.42886088E+03 E0= -.42885577E+03  d E =-.291184E-03  mag=     0.0002
       N       E                     dE             d eps       ncg     rms          rms(c)
RMM:   1    -0.422838259697E+03   -0.57265E-04   -0.48731E-03  4802   0.171E-01    0.212E-02
RMM:   2    -0.422838253823E+03    0.58734E-05   -0.33997E-05  2882   0.134E-02
  47 F= -.42886091E+03 E0= -.42885588E+03  d E =-.292838E-04  mag=     0.0003
       N       E                     dE             d eps       ncg     rms          rms(c)
RMM:   1    -0.422838276706E+03   -0.17009E-04   -0.42171E-03  4791   0.159E-01    0.296E-02
RMM:   2    -0.422838369460E+03   -0.92754E-04   -0.49874E-05  2981   0.157E-02
  48 F= -.42886102E+03 E0= -.42885571E+03  d E =-.141922E-03  mag=     0.0006
       N       E                     dE             d eps       ncg     rms          rms(c)
RMM:   1    -0.422838227041E+03    0.49665E-04   -0.16922E-02  4860   0.319E-01    0.899E-02
RMM:   2    -0.422839053544E+03   -0.82650E-03   -0.57396E-04  4027   0.449E-02    0.251E-01
RMM:   3    -0.422838209000E+03    0.84454E-03   -0.45647E-05  3002   0.189E-02    0.242E-01
RMM:   4    -0.422837972943E+03    0.23606E-03   -0.35690E-04  3572   0.418E-02    0.583E-02
RMM:   5    -0.422838144033E+03   -0.17109E-03   -0.59241E-05  2958   0.200E-02    0.257E-02
RMM:   6    -0.422838169231E+03   -0.25198E-04   -0.21632E-05  2872   0.121E-02
  49 F= -.42886081E+03 E0= -.42885562E+03  d E =0.640932E-04  mag=    -0.0000
       N       E                     dE             d eps       ncg     rms          rms(c)
RMM:   1    -0.422838302267E+03   -0.15823E-03   -0.86806E-03  4792   0.215E-01    0.507E-02
RMM:   2    -0.422839200658E+03   -0.89839E-03   -0.32171E-04  3682   0.312E-02    0.175E-01
RMM:   3    -0.422838241180E+03    0.95948E-03   -0.95441E-05  3114   0.186E-02    0.195E-02
RMM:   4    -0.422838253445E+03   -0.12265E-04   -0.16320E-05  2542   0.999E-03
  50 F= -.42886090E+03 E0= -.42885577E+03  d E =-.830620E-04  mag=     0.0001
       N       E                     dE             d eps       ncg     rms          rms(c)
RMM:   1    -0.422838420836E+03   -0.17966E-03   -0.15210E-02  4842   0.286E-01    0.715E-02
RMM:   2    -0.422839601548E+03   -0.11807E-02   -0.50952E-04  3943   0.397E-02    0.217E-01
RMM:   3    -0.422838262619E+03    0.13389E-02   -0.13233E-04  3266   0.221E-02    0.102E-01
RMM:   4    -0.422838320779E+03   -0.58160E-04   -0.36803E-05  2801   0.148E-02
  51 F= -.42886096E+03 E0= -.42885565E+03  d E =-.148751E-03  mag=    -0.0000
       N       E                     dE             d eps       ncg     rms          rms(c)
RMM:   1    -0.422838750389E+03   -0.48777E-03   -0.60695E-02  4868   0.571E-01    0.136E-01
RMM:   2    -0.422843477187E+03   -0.47268E-02   -0.20369E-03  4638   0.771E-02    0.351E-01
RMM:   3    -0.422838402556E+03    0.50746E-02   -0.58101E-04  4141   0.420E-02    0.472E-02
RMM:   4    -0.422838502494E+03   -0.99938E-04   -0.72337E-05  2977   0.195E-02
  52 F= -.42886114E+03 E0= -.42885586E+03  d E =-.326821E-03  mag=     0.0004
       N       E                     dE             d eps       ncg     rms          rms(c)
RMM:   1    -0.422838698715E+03   -0.29616E-03   -0.90677E-03  4854   0.236E-01    0.955E-02
RMM:   2    -0.422839876075E+03   -0.11774E-02   -0.59542E-04  3993   0.446E-02    0.291E-01
RMM:   3    -0.422838485662E+03    0.13904E-02   -0.87605E-05  3097   0.221E-02    0.256E-01
RMM:   4    -0.422838435331E+03    0.50331E-04   -0.41887E-04  3708   0.450E-02
  53 F= -.42886105E+03 E0= -.42885550E+03  d E =0.891678E-04  mag=    -0.0001
       N       E                     dE             d eps       ncg     rms          rms(c)
RMM:   1    -0.422838726737E+03   -0.24107E-03   -0.82055E-02  4866   0.709E-01    0.126E-01
RMM:   2    -0.422841777189E+03   -0.30505E-02   -0.15800E-03  4734   0.726E-02    0.334E-01
RMM:   3    -0.422838533848E+03    0.32433E-02   -0.41688E-04  3925   0.366E-02    0.712E-02
RMM:   4    -0.422838596632E+03   -0.62785E-04   -0.62385E-05  2986   0.195E-02
  54 F= -.42886115E+03 E0= -.42885572E+03  d E =-.652430E-05  mag=    -0.0005
       N       E                     dE             d eps       ncg     rms          rms(c)
RMM:   1    -0.422838786678E+03   -0.25283E-03   -0.22012E-02  4864   0.366E-01    0.951E-02
RMM:   2    -0.422840280345E+03   -0.14937E-02   -0.69693E-04  4139   0.493E-02    0.389E-01
RMM:   3    -0.422838789833E+03    0.14905E-02   -0.68578E-05  3010   0.237E-02    0.315E-01
RMM:   4    -0.422838412643E+03    0.37719E-03   -0.46199E-04  3733   0.472E-02    0.511E-02
RMM:   5    -0.422838722983E+03   -0.31034E-03   -0.41731E-05  2953   0.206E-02    0.181E-02
RMM:   6    -0.422838750232E+03   -0.27249E-04   -0.14176E-05  2719   0.120E-02
  55 F= -.42886133E+03 E0= -.42885584E+03  d E =-.193726E-03  mag=     0.0000
       N       E                     dE             d eps       ncg     rms          rms(c)
RMM:   1    -0.422839017293E+03   -0.29431E-03   -0.16889E-02  4849   0.305E-01    0.936E-02
RMM:   2    -0.422842412253E+03   -0.33950E-02   -0.10564E-03  4368   0.534E-02    0.341E-01
RMM:   3    -0.422838821118E+03    0.35911E-02   -0.39752E-04  3880   0.347E-02    0.285E-02
RMM:   4    -0.422838892865E+03   -0.71747E-04   -0.27088E-05  2833   0.140E-02
  56 F= -.42886148E+03 E0= -.42885594E+03  d E =-.147357E-03  mag=     0.0003
       N       E                     dE             d eps       ncg     rms          rms(c)
RMM:   1    -0.422839131351E+03   -0.31023E-03   -0.20183E-02  4856   0.335E-01    0.120E-01
RMM:   2    -0.422843897954E+03   -0.47666E-02   -0.15251E-03  4474   0.645E-02    0.405E-01
RMM:   3    -0.422838753285E+03    0.51447E-02   -0.55696E-04  4071   0.413E-02    0.164E-01
RMM:   4    -0.422838873020E+03   -0.11974E-03   -0.98029E-05  3079   0.247E-02    0.592E-02
RMM:   5    -0.422838961617E+03   -0.88596E-04   -0.35395E-05  2865   0.141E-02
  57 F= -.42886156E+03 E0= -.42885599E+03  d E =-.221364E-03  mag=    -0.0000
       N       E                     dE             d eps       ncg     rms          rms(c)
RMM:   1    -0.422839386705E+03   -0.51368E-03   -0.19259E-02  4855   0.330E-01    0.124E-01
RMM:   2    -0.422845571372E+03   -0.61847E-02   -0.17838E-03  4532   0.684E-02    0.436E-01
RMM:   3    -0.422839041996E+03    0.65294E-02   -0.73009E-04  4225   0.461E-02    0.384E-02
RMM:   4    -0.422839132702E+03   -0.90706E-04   -0.42444E-05  2931   0.171E-02
  58 F= -.42886175E+03 E0= -.42885610E+03  d E =-.192225E-03  mag=    -0.0003
       N       E                     dE             d eps       ncg     rms          rms(c)
RMM:   1    -0.422840320003E+03   -0.12780E-02   -0.17500E-01  4873   0.993E-01    0.267E-01
RMM:   2    -0.422859780918E+03   -0.19461E-01   -0.80519E-03  4836   0.148E-01    0.654E-01
RMM:   3    -0.422838982885E+03    0.20798E-01   -0.23474E-03  4588   0.830E-02    0.251E-01
RMM:   4    -0.422839062142E+03   -0.79257E-04   -0.71031E-05  3133   0.210E-02
  59 F= -.42886174E+03 E0= -.42885625E+03  d E =-.185268E-03  mag=    -0.0009
       N       E                     dE             d eps       ncg     rms          rms(c)
RMM:   1    -0.422839841469E+03   -0.85858E-03   -0.27861E-02  4857   0.393E-01    0.227E-01
RMM:   2    -0.422864277700E+03   -0.24436E-01   -0.58014E-03  4791   0.123E-01    0.111E+00
RMM:   3    -0.422838413600E+03    0.25864E-01   -0.22040E-03  4545   0.875E-02    0.505E-01
RMM:   4    -0.422838511465E+03   -0.97864E-04   -0.12532E-03  4235   0.823E-02    0.132E-01
RMM:   5    -0.422839170739E+03   -0.65927E-03   -0.18907E-04  3331   0.359E-02    0.307E-02
RMM:   6    -0.422839291293E+03   -0.12055E-03   -0.69687E-05  2971   0.224E-02    0.129E-02
RMM:   7    -0.422839292428E+03   -0.11345E-05   -0.12253E-05  2748   0.938E-03
  60 F= -.42886195E+03 E0= -.42885616E+03  d E =-.390403E-03  mag=     0.0000
       N       E                     dE             d eps       ncg     rms          rms(c)
RMM:   1    -0.422839323199E+03   -0.31906E-04   -0.48859E-03  4743   0.166E-01    0.478E-02
RMM:   2    -0.422840392178E+03   -0.10690E-02   -0.27384E-04  3564   0.281E-02    0.235E-01
RMM:   3    -0.422839250976E+03    0.11412E-02   -0.10102E-04  3144   0.195E-02    0.213E-02
RMM:   4    -0.422839280703E+03   -0.29726E-04   -0.13919E-05  2539   0.102E-02
  61 F= -.42886194E+03 E0= -.42885615E+03  d E =-.389308E-03  mag=     0.0001
       N       E                     dE             d eps       ncg     rms          rms(c)
RMM:   1    -0.422839376333E+03   -0.12536E-03   -0.60936E-03  4643   0.177E-01    0.565E-02
RMM:   2    -0.422840325327E+03   -0.94899E-03   -0.28953E-04  3593   0.297E-02    0.237E-01
RMM:   3    -0.422839263269E+03    0.10621E-02   -0.88434E-05  3101   0.192E-02    0.101E-01
RMM:   4    -0.422839327866E+03   -0.64596E-04   -0.45189E-05  2831   0.162E-02
  62 F= -.42886200E+03 E0= -.42885614E+03  d E =-.530899E-04  mag=    -0.0000
       N       E                     dE             d eps       ncg     rms          rms(c)
RMM:   1    -0.422839874824E+03   -0.61155E-03   -0.54809E-02  4861   0.529E-01    0.161E-01
RMM:   2    -0.422849370666E+03   -0.94958E-02   -0.29625E-03  4657   0.888E-02    0.565E-01
RMM:   3    -0.422839357092E+03    0.10014E-01   -0.10890E-03  4371   0.572E-02    0.543E-02
RMM:   4    -0.422839564259E+03   -0.20717E-03   -0.73401E-05  2932   0.221E-02    0.542E-02
RMM:   5    -0.422839508781E+03    0.55478E-04   -0.29624E-05  2857   0.114E-02
  63 F= -.42886220E+03 E0= -.42885626E+03  d E =-.251566E-03  mag=    -0.0001
       N       E                     dE             d eps       ncg     rms          rms(c)
RMM:   1    -0.422841677656E+03   -0.21134E-02   -0.21985E-01  4886   0.106E+00    0.362E-01
RMM:   2    -0.422883420501E+03   -0.41743E-01   -0.15740E-02  4831   0.202E-01    0.989E-01
RMM:   3    -0.422839478537E+03    0.43942E-01   -0.53508E-03  4726   0.123E-01    0.159E-01
RMM:   4    -0.422839666628E+03   -0.18809E-03   -0.45740E-04  3694   0.436E-02    0.247E-01
RMM:   5    -0.422839882465E+03   -0.21584E-03   -0.10514E-04  3046   0.261E-02    0.174E-01
RMM:   6    -0.422839941307E+03   -0.58842E-04   -0.26569E-04  3557   0.303E-02
  64 F= -.42886266E+03 E0= -.42885653E+03  d E =-.718252E-03  mag=     0.0001
       N       E                     dE             d eps       ncg     rms          rms(c)
RMM:   1    -0.422847964401E+03   -0.80819E-02   -0.87916E-01  4889   0.211E+00    0.695E-01
RMM:   2    -0.422994709033E+03   -0.14674E+00   -0.57581E-02  4871   0.385E-01    0.199E+00
RMM:   3    -0.422839243470E+03    0.15547E+00   -0.19796E-02  4839   0.238E-01    0.195E-01
RMM:   4    -0.422840846745E+03   -0.16033E-02   -0.15860E-03  4448   0.789E-02    0.219E-01
RMM:   5    -0.422840830888E+03    0.15857E-04   -0.62752E-04  4034   0.415E-02
  65 F= -.42886362E+03 E0= -.42885744E+03  d E =-.167313E-02  mag=     0.0002
       N       E                     dE             d eps       ncg     rms          rms(c)
RMM:   1    -0.422859386961E+03   -0.18540E-01   -0.35217E+00  4890   0.421E+00    0.701E-01
RMM:   2    -0.422935185957E+03   -0.75799E-01   -0.67299E-02  4866   0.450E-01    0.161E+00
RMM:   3    -0.422846096137E+03    0.89090E-01   -0.12917E-02  4843   0.200E-01    0.467E-01
RMM:   4    -0.422841957748E+03    0.41384E-02   -0.19345E-03  4690   0.946E-02    0.432E-01
RMM:   5    -0.422839986692E+03    0.19711E-02   -0.40922E-04  3581   0.454E-02    0.468E-01
RMM:   6    -0.422840617841E+03   -0.63115E-03   -0.17619E-03  4417   0.884E-02    0.223E-01
RMM:   7    -0.422840857134E+03   -0.23929E-03   -0.25417E-04  3507   0.377E-02    0.137E-01
RMM:   8    -0.422840782952E+03    0.74182E-04   -0.10909E-04  3102   0.233E-02
  66 F= -.42886370E+03 E0= -.42885763E+03  d E =-.175077E-02  mag=    -0.0002
       N       E                     dE             d eps       ncg     rms          rms(c)
RMM:   1    -0.422840937329E+03   -0.80195E-04   -0.11380E-02  4732   0.239E-01    0.743E-02
RMM:   2    -0.422843711225E+03   -0.27739E-02   -0.65023E-04  4045   0.420E-02    0.451E-01
RMM:   3    -0.422840740523E+03    0.29707E-02   -0.28109E-04  3657   0.318E-02    0.510E-02
RMM:   4    -0.422840840350E+03   -0.99827E-04   -0.25619E-05  2852   0.161E-02
  67 F= -.42886376E+03 E0= -.42885797E+03  d E =-.181531E-02  mag=    -0.0001
       N       E                     dE             d eps       ncg     rms          rms(c)
RMM:   1    -0.422841292619E+03   -0.55210E-03   -0.44718E-02  4854   0.475E-01    0.147E-01
RMM:   2    -0.422850927041E+03   -0.96344E-02   -0.24121E-03  4569   0.800E-02    0.847E-01
RMM:   3    -0.422840627190E+03    0.10300E-01   -0.10578E-03  4342   0.599E-02    0.124E-01
RMM:   4    -0.422840954426E+03   -0.32724E-03   -0.59064E-05  2961   0.267E-02    0.122E-01
RMM:   5    -0.422840913655E+03    0.40771E-04   -0.44358E-05  2831   0.158E-02
  68 F= -.42886385E+03 E0= -.42885822E+03  d E =-.190300E-02  mag=    -0.0002
       N       E                     dE             d eps       ncg     rms          rms(c)
RMM:   1    -0.422842216175E+03   -0.12617E-02   -0.17835E-01  4885   0.947E-01    0.214E-01
RMM:   2    -0.422860054951E+03   -0.17839E-01   -0.60574E-03  4754   0.130E-01    0.112E+00
RMM:   3    -0.422840934039E+03    0.19121E-01   -0.20864E-03  4549   0.831E-02    0.154E-01
RMM:   4    -0.422841090244E+03   -0.15620E-03   -0.12176E-04  3103   0.355E-02    0.362E-02
RMM:   5    -0.422841063517E+03    0.26727E-04   -0.34387E-05  2957   0.146E-02
  69 F= -.42886403E+03 E0= -.42885892E+03  d E =-.208202E-02  mag=    -0.0005
       N       E                     dE             d eps       ncg     rms          rms(c)
RMM:   1    -0.422842702654E+03   -0.16124E-02   -0.71607E-01  4888   0.190E+00    0.229E-01
RMM:   2    -0.422843899108E+03   -0.11965E-02   -0.81888E-03  4825   0.169E-01    0.393E-01
RMM:   3    -0.422841116430E+03    0.27827E-02   -0.80726E-04  4269   0.541E-02    0.206E-01
RMM:   4    -0.422840579341E+03    0.53709E-03   -0.12442E-04  3155   0.270E-02    0.264E-01
RMM:   5    -0.422840666283E+03   -0.86942E-04   -0.60902E-04  3922   0.532E-02
  70 F= -.42886369E+03 E0= -.42885966E+03  d E =-.174548E-02  mag=     0.0005
       N       E                     dE             d eps       ncg     rms          rms(c)
RMM:   1    -0.422840601237E+03   -0.21897E-04   -0.67598E-02  4861   0.581E-01    0.756E-02
RMM:   2    -0.422840696704E+03   -0.95466E-04   -0.89328E-04  4272   0.554E-02
  71 F= -.42886374E+03 E0= -.42885948E+03  d E =-.179539E-02  mag=     0.0010
       N       E                     dE             d eps       ncg     rms          rms(c)
RMM:   1    -0.422840723585E+03   -0.12235E-03   -0.47404E-02  4835   0.486E-01    0.752E-02
RMM:   2    -0.422840387218E+03    0.33637E-03   -0.52510E-04  3855   0.473E-02    0.191E-01
RMM:   3    -0.422840712303E+03   -0.32508E-03   -0.28906E-04  3400   0.384E-02    0.510E-02
RMM:   4    -0.422840815696E+03   -0.10339E-03   -0.40826E-05  2879   0.161E-02    0.150E-02
RMM:   5    -0.422840836759E+03   -0.21063E-04   -0.71369E-06  2366   0.790E-03
  72 F= -.42886386E+03 E0= -.42885975E+03  d E =-.191908E-02  mag=     0.0002
       N       E                     dE             d eps       ncg     rms          rms(c)
RMM:   1    -0.422840847145E+03   -0.31448E-04   -0.83774E-04  4045   0.638E-02    0.691E-03
RMM:   2    -0.422840848299E+03   -0.11546E-05   -0.66704E-06  2275   0.703E-03
  73 F= -.42886388E+03 E0= -.42885974E+03  d E =-.132635E-04  mag=     0.0003
       N       E                     dE             d eps       ncg     rms          rms(c)
RMM:   1    -0.422840866615E+03   -0.19470E-04   -0.71127E-03  4636   0.188E-01    0.237E-02
RMM:   2    -0.422840854311E+03    0.12304E-04   -0.57986E-05  2917   0.166E-02
  74 F= -.42886389E+03 E0= -.42885980E+03  d E =-.244730E-04  mag=     0.0005
       N       E                     dE             d eps       ncg     rms          rms(c)
RMM:   1    -0.422840823420E+03    0.43195E-04   -0.28392E-02  4829   0.375E-01    0.579E-02
RMM:   2    -0.422840688891E+03    0.13453E-03   -0.22833E-04  3311   0.318E-02    0.984E-02
RMM:   3    -0.422840768057E+03   -0.79167E-04   -0.35354E-05  2819   0.149E-02
  75 F= -.42886381E+03 E0= -.42885990E+03  d E =0.512694E-04  mag=     0.0002
       N       E                     dE             d eps       ncg     rms          rms(c)
RMM:   1    -0.422840934369E+03   -0.24548E-03   -0.51693E-05  2955   0.168E-02    0.257E-02
RMM:   2    -0.422840967704E+03   -0.33335E-04   -0.38595E-05  2881   0.122E-02
  76 F= -.42886401E+03 E0= -.42886002E+03  d E =-.198819E-03  mag=     0.0005
       N       E                     dE             d eps       ncg     rms          rms(c)
RMM:   1    -0.422841205721E+03   -0.27135E-03   -0.19339E-04  3205   0.348E-02    0.506E-02
RMM:   2    -0.422841024493E+03    0.18123E-03   -0.79134E-05  3018   0.203E-02    0.131E-01
RMM:   3    -0.422841176143E+03   -0.15165E-03   -0.14290E-04  3088   0.271E-02    0.231E-02
RMM:   4    -0.422841218731E+03   -0.42588E-04   -0.16458E-05  2656   0.109E-02
  77 F= -.42886426E+03 E0= -.42886036E+03  d E =-.447360E-03  mag=     0.0000
       N       E                     dE             d eps       ncg     rms          rms(c)
RMM:   1    -0.422841847356E+03   -0.67121E-03   -0.74527E-04  4357   0.678E-02    0.733E-03
RMM:   2    -0.422841850310E+03   -0.29547E-05   -0.62256E-06  2088   0.704E-03
  78 F= -.42886489E+03 E0= -.42886100E+03  d E =-.107399E-02  mag=     0.0001
       N       E                     dE             d eps       ncg     rms          rms(c)
RMM:   1    -0.422843053900E+03   -0.12065E-02   -0.30482E-03  4772   0.137E-01    0.173E-02
RMM:   2    -0.422843040901E+03    0.12999E-04   -0.22351E-05  2912   0.112E-02
  79 F= -.42886607E+03 E0= -.42886221E+03  d E =-.225475E-02  mag=     0.0002
       N       E                     dE             d eps       ncg     rms          rms(c)
RMM:   1    -0.422845307295E+03   -0.22534E-02   -0.12148E-02  4862   0.272E-01    0.412E-02
RMM:   2    -0.422845232788E+03    0.74507E-04   -0.88466E-05  3002   0.218E-02
  80 F= -.42886824E+03 E0= -.42886441E+03  d E =-.442731E-02  mag=     0.0004
       N       E                     dE             d eps       ncg     rms          rms(c)
RMM:   1    -0.422849254779E+03   -0.39475E-02   -0.48623E-02  4864   0.544E-01    0.837E-02
RMM:   2    -0.422849038417E+03    0.21636E-03   -0.34729E-04  3712   0.424E-02    0.120E-01
RMM:   3    -0.422849067141E+03   -0.28724E-04   -0.24545E-05  2957   0.138E-02
  81 F= -.42887204E+03 E0= -.42886823E+03  d E =-.822429E-02  mag=    -0.0001
       N       E                     dE             d eps       ncg     rms          rms(c)
RMM:   1    -0.422854962814E+03   -0.59244E-02   -0.19182E-01  4864   0.108E+00    0.138E-01
RMM:   2    -0.422854712886E+03    0.24993E-03   -0.14466E-03  4828   0.823E-02    0.874E-02
RMM:   3    -0.422854541192E+03    0.17169E-03   -0.20345E-04  3372   0.315E-02    0.119E-01
RMM:   4    -0.422854473837E+03    0.67354E-04   -0.23149E-05  2976   0.132E-02
  82 F= -.42887737E+03 E0= -.42887338E+03  d E =-.135612E-01  mag=     0.0000
       N       E                     dE             d eps       ncg     rms          rms(c)
RMM:   1    -0.422859920466E+03   -0.53793E-02   -0.76938E-01  4871   0.216E+00    0.471E-01
RMM:   2    -0.422863170692E+03   -0.32502E-02   -0.15557E-02  4864   0.228E-01    0.442E-01
RMM:   3    -0.422857623572E+03    0.55471E-02   -0.30634E-03  4653   0.997E-02    0.151E-01
RMM:   4    -0.422856825295E+03    0.79828E-03   -0.62463E-04  4211   0.478E-02    0.201E-01
RMM:   5    -0.422856311154E+03    0.51414E-03   -0.78436E-05  3070   0.218E-02    0.238E-01
RMM:   6    -0.422857006846E+03   -0.69569E-03   -0.76096E-04  4035   0.580E-02    0.628E-02
RMM:   7    -0.422857281810E+03   -0.27496E-03   -0.11382E-04  3120   0.247E-02    0.228E-02
RMM:   8    -0.422857318130E+03   -0.36320E-04   -0.22975E-05  2898   0.133E-02
  83 F= -.42888010E+03 E0= -.42887520E+03  d E =-.162865E-01  mag=    -0.0004
       N       E                     dE             d eps       ncg     rms          rms(c)
RMM:   1    -0.422857741632E+03   -0.45982E-03   -0.38027E-02  4864   0.481E-01    0.936E-02
RMM:   2    -0.422857765226E+03   -0.23594E-04   -0.64994E-04  4063   0.481E-02
  84 F= -.42888057E+03 E0= -.42887557E+03  d E =-.167576E-01  mag=    -0.0004
       N       E                     dE             d eps       ncg     rms          rms(c)
RMM:   1    -0.422857601956E+03    0.13968E-03   -0.27012E-03  4688   0.125E-01    0.214E-02
RMM:   2    -0.422857626722E+03   -0.24765E-04   -0.39093E-05  2900   0.136E-02
  85 F= -.42888043E+03 E0= -.42887552E+03  d E =-.166128E-01  mag=    -0.0006
       N       E                     dE             d eps       ncg     rms          rms(c)
RMM:   1    -0.422858449430E+03   -0.84747E-03   -0.22632E-02  4846   0.344E-01    0.805E-02
RMM:   2    -0.422858497811E+03   -0.48381E-04   -0.47192E-04  3798   0.390E-02
  86 F= -.42888131E+03 E0= -.42887663E+03  d E =-.887781E-03  mag=    -0.0012
       N       E                     dE             d eps       ncg     rms          rms(c)
RMM:   1    -0.422860763814E+03   -0.23144E-02   -0.12669E-01  4878   0.816E-01    0.252E-01
RMM:   2    -0.422861655972E+03   -0.89216E-03   -0.35968E-03  4720   0.104E-01    0.324E-01
RMM:   3    -0.422859200167E+03    0.24558E-02   -0.96433E-04  4214   0.566E-02    0.159E-01
RMM:   4    -0.422858694918E+03    0.50525E-03   -0.72454E-05  3034   0.198E-02    0.195E-01
RMM:   5    -0.422859878453E+03   -0.11835E-02   -0.42700E-04  3819   0.430E-02    0.949E-02
RMM:   6    -0.422860046670E+03   -0.16822E-03   -0.18061E-04  3274   0.287E-02    0.251E-02
RMM:   7    -0.422860133730E+03   -0.87060E-04   -0.42193E-05  2922   0.152E-02
  87 F= -.42888299E+03 E0= -.42887777E+03  d E =-.256371E-02  mag=    -0.0002
       N       E                     dE             d eps       ncg     rms          rms(c)
RMM:   1    -0.422866239382E+03   -0.61927E-02   -0.50778E-01  4889   0.163E+00    0.508E-01
RMM:   2    -0.422871922443E+03   -0.56831E-02   -0.15607E-02  4846   0.213E-01    0.645E-01
RMM:   3    -0.422863862621E+03    0.80598E-02   -0.43985E-03  4654   0.116E-01    0.152E-01
RMM:   4    -0.422863709694E+03    0.15293E-03   -0.45814E-04  4019   0.395E-02    0.697E-02
RMM:   5    -0.422863256781E+03    0.45291E-03   -0.92308E-05  3120   0.199E-02    0.245E-02
RMM:   6    -0.422863116851E+03    0.13993E-03   -0.23195E-05  2910   0.114E-02    0.274E-02
RMM:   7    -0.422863179414E+03   -0.62563E-04   -0.37544E-06  1988   0.559E-03
  88 F= -.42888612E+03 E0= -.42888041E+03  d E =-.569073E-02  mag=    -0.0005
       N       E                     dE             d eps       ncg     rms          rms(c)
RMM:   1    -0.422883819092E+03   -0.20702E-01   -0.20378E+00  4890   0.326E+00    0.156E+00
RMM:   2    -0.423015920652E+03   -0.13210E+00   -0.12681E-01  4864   0.575E-01    0.300E+00
RMM:   3    -0.422901337227E+03    0.11458E+00   -0.61927E-02  4864   0.419E-01    0.118E+00
RMM:   4    -0.422871036504E+03    0.30301E-01   -0.73734E-03  4795   0.152E-01    0.420E-01
RMM:   5    -0.422869024388E+03    0.20121E-02   -0.10280E-03  4418   0.649E-02    0.194E-01
RMM:   6    -0.422868267100E+03    0.75729E-03   -0.36596E-04  3731   0.359E-02    0.425E-02
RMM:   7    -0.422868115336E+03    0.15176E-03   -0.73777E-05  3024   0.195E-02    0.467E-02
RMM:   8    -0.422868120363E+03   -0.50262E-05   -0.13478E-05  2828   0.963E-03
  89 F= -.42889123E+03 E0= -.42888334E+03  d E =-.108019E-01  mag=    -0.0018
       N       E                     dE             d eps       ncg     rms          rms(c)
RMM:   1    -0.422976038585E+03   -0.10792E+00   -0.84046E+00  4889   0.655E+00    0.414E+00
RMM:   2    -0.423738263374E+03   -0.76222E+00   -0.70082E-01  4865   0.131E+00    0.620E+00
RMM:   3    -0.423258123236E+03    0.48014E+00   -0.41896E-01  4864   0.108E+00    0.369E+00
RMM:   4    -0.422951328858E+03    0.30679E+00   -0.68855E-02  4884   0.414E-01    0.237E+00
RMM:   5    -0.422871962050E+03    0.79367E-01   -0.85337E-03  4817   0.194E-01    0.784E-01
RMM:   6    -0.422874072905E+03   -0.21109E-02   -0.48634E-04  3850   0.489E-02    0.840E-01
RMM:   7    -0.422871715762E+03    0.23571E-02   -0.29326E-03  4706   0.101E-01    0.268E-01
RMM:   8    -0.422870967077E+03    0.74869E-03   -0.21001E-03  4627   0.961E-02    0.535E-01
RMM:   9    -0.422872682417E+03   -0.17153E-02   -0.44098E-04  3728   0.553E-02    0.222E-01
RMM:  10    -0.422872494417E+03    0.18800E-03   -0.71678E-04  4120   0.621E-02    0.266E-01
RMM:  11    -0.422871846701E+03    0.64772E-03   -0.10286E-03  4395   0.779E-02    0.185E-01
RMM:  12    -0.422871962145E+03   -0.11544E-03   -0.14783E-04  3199   0.314E-02    0.647E-02
RMM:  13    -0.422872087769E+03   -0.12562E-03   -0.24312E-05  2880   0.145E-02    0.880E-02
RMM:  14    -0.422872085365E+03    0.24039E-05   -0.31788E-06  2040   0.583E-03
  90 F= -.42889558E+03 E0= -.42888103E+03  d E =-.151505E-01  mag=    -0.0015
       N       E                     dE             d eps       ncg     rms          rms(c)
RMM:   1    -0.422872397528E+03   -0.30976E-03   -0.10308E-03  4232   0.721E-02    0.607E-02
RMM:   2    -0.422872705044E+03   -0.30752E-03   -0.15569E-04  3135   0.225E-02    0.196E-01
RMM:   3    -0.422872434988E+03    0.27006E-03   -0.83328E-05  2843   0.170E-02    0.582E-02
RMM:   4    -0.422872445057E+03   -0.10069E-04   -0.10141E-05  2252   0.871E-03
  91 F= -.42889594E+03 E0= -.42888106E+03  d E =-.363116E-03  mag=    -0.0013
       N       E                     dE             d eps       ncg     rms          rms(c)
RMM:   1    -0.422873202389E+03   -0.76740E-03   -0.89093E-03  4710   0.210E-01    0.163E-01
RMM:   2    -0.422875006629E+03   -0.18042E-02   -0.11845E-03  4158   0.555E-02    0.510E-01
RMM:   3    -0.422873037619E+03    0.19690E-02   -0.70824E-04  4003   0.467E-02    0.112E-01
RMM:   4    -0.422873135407E+03   -0.97788E-04   -0.34823E-05  2809   0.178E-02
  92 F= -.42889664E+03 E0= -.42888171E+03  d E =-.106380E-02  mag=    -0.0011
       N       E                     dE             d eps       ncg     rms          rms(c)
RMM:   1    -0.422874996653E+03   -0.19590E-02   -0.35653E-02  4852   0.421E-01    0.338E-01
RMM:   2    -0.422882641061E+03   -0.76444E-02   -0.51004E-03  4622   0.114E-01    0.990E-01
RMM:   3    -0.422874978985E+03    0.76621E-02   -0.30668E-03  4516   0.955E-02    0.446E-01
RMM:   4    -0.422875258821E+03   -0.27984E-03   -0.16239E-04  3265   0.363E-02    0.367E-01
RMM:   5    -0.422874225396E+03    0.10334E-02   -0.20974E-04  3442   0.280E-02    0.729E-02
RMM:   6    -0.422874553540E+03   -0.32814E-03   -0.55765E-05  2900   0.217E-02    0.777E-02
RMM:   7    -0.422874372502E+03    0.18104E-03   -0.24459E-04  3049   0.389E-02    0.378E-02
RMM:   8    -0.422874391050E+03   -0.18548E-04   -0.52498E-05  2850   0.196E-02
  93 F= -.42889792E+03 E0= -.42888261E+03  d E =-.234040E-02  mag=    -0.0006
       N       E                     dE             d eps       ncg     rms          rms(c)
RMM:   1    -0.422879486466E+03   -0.51140E-02   -0.14264E-01  4880   0.839E-01    0.697E-01
RMM:   2    -0.422916215454E+03   -0.36729E-01   -0.21979E-02  4790   0.234E-01    0.178E+00
RMM:   3    -0.422881848152E+03    0.34367E-01   -0.14319E-02  4780   0.200E-01    0.546E-01
RMM:   4    -0.422877289128E+03    0.45590E-02   -0.80082E-04  4360   0.626E-02    0.183E-01
RMM:   5    -0.422877651984E+03   -0.36286E-03   -0.13978E-04  3119   0.272E-02    0.328E-01
RMM:   6    -0.422876881434E+03    0.77055E-03   -0.13918E-04  3081   0.282E-02    0.101E-01
RMM:   7    -0.422876844989E+03    0.36445E-04   -0.65112E-05  2972   0.188E-02
  94 F= -.42890041E+03 E0= -.42888451E+03  d E =-.483742E-02  mag=     0.0011
       N       E                     dE             d eps       ncg     rms          rms(c)
RMM:   1    -0.422892370873E+03   -0.15489E-01   -0.57171E-01  4892   0.168E+00    0.142E+00
RMM:   2    -0.423024711140E+03   -0.13234E+00   -0.84753E-02  4860   0.455E-01    0.329E+00
RMM:   3    -0.422908522961E+03    0.11619E+00   -0.56906E-02  4861   0.396E-01    0.120E+00
RMM:   4    -0.422886991219E+03    0.21532E-01   -0.41148E-03  4719   0.136E-01    0.921E-01
RMM:   5    -0.422884307667E+03    0.26836E-02   -0.41306E-04  3823   0.544E-02    0.684E-01
RMM:   6    -0.422880050361E+03    0.42573E-02   -0.10366E-03  4358   0.642E-02    0.210E-01
RMM:   7    -0.422881152818E+03   -0.11025E-02   -0.70646E-05  3028   0.289E-02    0.209E-01
RMM:   8    -0.422883652750E+03   -0.24999E-02   -0.61475E-04  4040   0.543E-02    0.274E-01
RMM:   9    -0.422883100591E+03    0.55216E-03   -0.45685E-04  3935   0.510E-02    0.170E-01
RMM:  10    -0.422883250350E+03   -0.14976E-03   -0.92494E-05  3065   0.244E-02    0.911E-02
RMM:  11    -0.422883411193E+03   -0.16084E-03   -0.34373E-05  2879   0.167E-02    0.205E-02
RMM:  12    -0.422883460054E+03   -0.48861E-04   -0.64069E-06  2404   0.744E-03
  95 F= -.42890712E+03 E0= -.42888998E+03  d E =-.115436E-01  mag=    -0.0019
       N       E                     dE             d eps       ncg     rms          rms(c)
RMM:   1    -0.422932922198E+03   -0.49511E-01   -0.23380E+00  4898   0.336E+00    0.257E+00
RMM:   2    -0.423316327179E+03   -0.38340E+00   -0.26139E-01  4868   0.800E-01    0.555E+00
RMM:   3    -0.423011479060E+03    0.30485E+00   -0.17783E-01  4868   0.698E-01    0.260E+00
RMM:   4    -0.422910572175E+03    0.10091E+00   -0.19142E-02  4864   0.247E-01    0.123E+00
RMM:   5    -0.422897650524E+03    0.12922E-01   -0.21131E-03  4653   0.988E-02    0.257E-01
RMM:   6    -0.422898047482E+03   -0.39696E-03   -0.16212E-04  3255   0.326E-02    0.389E-01
RMM:   7    -0.422897571845E+03    0.47564E-03   -0.34418E-04  3803   0.389E-02    0.114E-01
RMM:   8    -0.422898061549E+03   -0.48970E-03   -0.18492E-04  3123   0.355E-02    0.114E-01
RMM:   9    -0.422897879651E+03    0.18190E-03   -0.12653E-04  3094   0.297E-02    0.832E-02
RMM:  10    -0.422897657678E+03    0.22197E-03   -0.22896E-04  3219   0.375E-02    0.627E-02
RMM:  11    -0.422897650504E+03    0.71748E-05   -0.37180E-05  2905   0.186E-02
  96 F= -.42892151E+03 E0= -.42890287E+03  d E =-.259373E-01  mag=    -0.0006
       N       E                     dE             d eps       ncg     rms          rms(c)
RMM:   1    -0.423020663180E+03   -0.12301E+00   -0.93362E+00  4897   0.667E+00    0.273E+00
RMM:   2    -0.423253872128E+03   -0.23321E+00   -0.30968E-01  4864   0.910E-01    0.459E+00
RMM:   3    -0.423133152169E+03    0.12072E+00   -0.17817E-01  4870   0.697E-01    0.258E+00
RMM:   4    -0.422949454039E+03    0.18370E+00   -0.28680E-02  4873   0.274E-01    0.781E-01
RMM:   5    -0.422929419384E+03    0.20035E-01   -0.46197E-03  4803   0.127E-01    0.393E-01
RMM:   6    -0.422929264625E+03    0.15476E-03   -0.31100E-04  3567   0.381E-02    0.546E-01
RMM:   7    -0.422929540331E+03   -0.27571E-03   -0.78906E-04  4328   0.584E-02    0.171E-01
RMM:   8    -0.422929878924E+03   -0.33859E-03   -0.18360E-04  3215   0.375E-02    0.234E-01
RMM:   9    -0.422930677263E+03   -0.79834E-03   -0.49416E-04  3912   0.494E-02    0.139E-01
RMM:  10    -0.422930921628E+03   -0.24437E-03   -0.30360E-04  3573   0.389E-02    0.430E-02
RMM:  11    -0.422931059318E+03   -0.13769E-03   -0.71868E-05  2962   0.226E-02    0.374E-02
RMM:  12    -0.422931078130E+03   -0.18812E-04   -0.12580E-05  2876   0.105E-02
  97 F= -.42895544E+03 E0= -.42893772E+03  d E =-.598616E-01  mag=    -0.0012
       N       E                     dE             d eps       ncg     rms          rms(c)
RMM:   1    -0.423106597472E+03   -0.17554E+00   -0.37300E+01  4899   0.132E+01    0.179E+00
RMM:   2    -0.422996479346E+03    0.11012E+00   -0.29615E-01  4864   0.108E+00    0.128E+00
RMM:   3    -0.423048239939E+03   -0.51761E-01   -0.40346E-02  4902   0.378E-01    0.986E-01
RMM:   4    -0.423003415079E+03    0.44825E-01   -0.37545E-02  4905   0.299E-01    0.875E-01
RMM:   5    -0.422977744551E+03    0.25671E-01   -0.78788E-03  4704   0.156E-01    0.320E-01
RMM:   6    -0.422974911040E+03    0.28335E-02   -0.13312E-03  4549   0.696E-02    0.990E-02
RMM:   7    -0.422974757054E+03    0.15399E-03   -0.17410E-04  3237   0.276E-02    0.690E-02
RMM:   8    -0.422974677353E+03    0.79701E-04   -0.76292E-05  3042   0.194E-02
  98 F= -.42900040E+03 E0= -.42899495E+03  d E =-.104825E+00  mag=    -0.0009
       N       E                     dE             d eps       ncg     rms          rms(c)
RMM:   1    -0.422981347640E+03   -0.65906E-02   -0.47829E-01  4894   0.147E+00    0.114E-01
RMM:   2    -0.422980756181E+03    0.59146E-03   -0.33107E-03  4756   0.115E-01    0.734E-02
RMM:   3    -0.422980949253E+03   -0.19307E-03   -0.17739E-04  3317   0.282E-02    0.693E-02
RMM:   4    -0.422980968376E+03   -0.19123E-04   -0.12214E-04  3244   0.190E-02
  99 F= -.42900686E+03 E0= -.42900282E+03  d E =-.646016E-02  mag=    -0.0007
       N       E                     dE             d eps       ncg     rms          rms(c)
RMM:   1    -0.422988702422E+03   -0.77532E-02   -0.33187E+00  4908   0.386E+00    0.189E-01
RMM:   2    -0.422985593987E+03    0.31084E-02   -0.19836E-02  4864   0.290E-01    0.169E-01
RMM:   3    -0.422985855574E+03   -0.26159E-03   -0.14443E-03  4379   0.671E-02    0.171E-01
RMM:   4    -0.422984878895E+03    0.97668E-03   -0.43892E-04  4076   0.398E-02    0.575E-02
RMM:   5    -0.422984869069E+03    0.98258E-05   -0.14187E-04  3130   0.252E-02
 100 F= -.42901124E+03 E0= -.42900746E+03  d E =-.108352E-01  mag=    -0.0006
       N       E                     dE             d eps       ncg     rms          rms(c)
RMM:   1    -0.422995981263E+03   -0.11102E-01   -0.73303E-03  4841   0.209E-01    0.227E-02
RMM:   2    -0.422995990522E+03   -0.92593E-05   -0.70045E-05  2972   0.182E-02
 101 F= -.42902235E+03 E0= -.42901836E+03  d E =-.111112E-01  mag=    -0.0006
       N       E                     dE             d eps       ncg     rms          rms(c)
RMM:   1    -0.423028425860E+03   -0.32445E-01   -0.65622E-02  4871   0.628E-01    0.654E-02
RMM:   2    -0.423028439049E+03   -0.13189E-04   -0.47950E-04  3999   0.464E-02
 102 F= -.42905476E+03 E0= -.42905064E+03  d E =-.435294E-01  mag=    -0.0006
       N       E                     dE             d eps       ncg     rms          rms(c)
RMM:   1    -0.423088960647E+03   -0.60535E-01   -0.26176E-01  4881   0.125E+00    0.143E-01
RMM:   2    -0.423089813647E+03   -0.85300E-03   -0.20134E-03  4853   0.934E-02    0.179E-01
RMM:   3    -0.423088539253E+03    0.12744E-02   -0.35709E-04  3700   0.339E-02    0.867E-02
RMM:   4    -0.423088365827E+03    0.17343E-03   -0.22350E-04  3184   0.323E-02    0.239E-02
RMM:   5    -0.423088350728E+03    0.15099E-04   -0.33758E-05  2950   0.149E-02
 103 F= -.42911462E+03 E0= -.42911060E+03  d E =-.103383E+00  mag=    -0.0005
       N       E                     dE             d eps       ncg     rms          rms(c)
RMM:   1    -0.423191358804E+03   -0.10299E+00   -0.10484E+00  4882   0.250E+00    0.233E-01
RMM:   2    -0.423190299410E+03    0.10594E-02   -0.76888E-03  4866   0.184E-01    0.132E-01
RMM:   3    -0.423190401877E+03   -0.10247E-03   -0.78133E-04  4727   0.582E-02    0.117E-01
RMM:   4    -0.423190464538E+03   -0.62661E-04   -0.36275E-04  3800   0.345E-02
 104 F= -.42921662E+03 E0= -.42921307E+03  d E =-.205389E+00  mag=    -0.0004
       N       E                     dE             d eps       ncg     rms          rms(c)
RMM:   1    -0.423326196741E+03   -0.13579E+00   -0.41882E+00  4876   0.500E+00    0.598E-01
RMM:   2    -0.423330824235E+03   -0.46275E-02   -0.43508E-02  4864   0.409E-01    0.550E-01
RMM:   3    -0.423327483039E+03    0.33412E-02   -0.58838E-03  4875   0.136E-01    0.369E-01
RMM:   4    -0.423320070838E+03    0.74122E-02   -0.23986E-03  4813   0.890E-02    0.143E-01
RMM:   5    -0.423319666388E+03    0.40445E-03   -0.34427E-04  3852   0.384E-02    0.105E-01
RMM:   6    -0.423319497644E+03    0.16874E-03   -0.26652E-04  3485   0.334E-02    0.760E-02
RMM:   7    -0.423319344838E+03    0.15281E-03   -0.31746E-05  2968   0.142E-02    0.258E-02
RMM:   8    -0.423319338514E+03    0.63239E-05   -0.21297E-05  2868   0.980E-03
 105 F= -.42934532E+03 E0= -.42934055E+03  d E =-.334084E+00  mag=    -0.0003
       N       E                     dE             d eps       ncg     rms          rms(c)
RMM:   1    -0.423346407134E+03   -0.27062E-01   -0.16825E+01  4877   0.100E+01    0.164E+00
RMM:   2    -0.423396038717E+03   -0.49632E-01   -0.26049E-01  4864   0.925E-01    0.160E+00
RMM:   3    -0.423337935185E+03    0.58104E-01   -0.46619E-02  4877   0.381E-01    0.106E+00
RMM:   4    -0.423320528615E+03    0.17407E-01   -0.15633E-02  4901   0.214E-01    0.747E-01
RMM:   5    -0.423306090878E+03    0.14438E-01   -0.28402E-03  4819   0.101E-01    0.192E-01
RMM:   6    -0.423305498788E+03    0.59209E-03   -0.13055E-03  4787   0.720E-02    0.747E-02
RMM:   7    -0.423305431431E+03    0.67358E-04   -0.16990E-04  3227   0.269E-02
 106 F= -.42933120E+03 E0= -.42932662E+03  d E =-.319961E+00  mag=    -0.0008
       N       E                     dE             d eps       ncg     rms          rms(c)
RMM:   1    -0.423372587249E+03   -0.67088E-01   -0.54984E+00  4877   0.573E+00    0.936E-01
RMM:   2    -0.423439504458E+03   -0.66917E-01   -0.10848E-01  4864   0.589E-01    0.219E+00
RMM:   3    -0.423370029509E+03    0.69475E-01   -0.26717E-02  4873   0.279E-01    0.682E-01
RMM:   4    -0.423360268538E+03    0.97610E-02   -0.40069E-03  4838   0.125E-01    0.196E-01
RMM:   5    -0.423357503791E+03    0.27647E-02   -0.16178E-03  4817   0.798E-02    0.446E-02
RMM:   6    -0.423357491021E+03    0.12770E-04   -0.88811E-05  3077   0.216E-02
 107 F= -.42938336E+03 E0= -.42937826E+03  d E =-.372121E+00  mag=    -0.0009
       N       E                     dE             d eps       ncg     rms          rms(c)
RMM:   1    -0.423373741147E+03   -0.16237E-01   -0.11674E-01  4868   0.897E-01    0.751E-02
RMM:   2    -0.423373811353E+03   -0.70205E-04   -0.99704E-04  4728   0.649E-02
 108 F= -.42939975E+03 E0= -.42939487E+03  d E =-.163948E-01  mag=    -0.0014
       N       E                     dE             d eps       ncg     rms          rms(c)
RMM:   1    -0.423412818920E+03   -0.39078E-01   -0.10586E+00  4866   0.269E+00    0.273E-01
RMM:   2    -0.423415883738E+03   -0.30648E-02   -0.95883E-03  4864   0.199E-01    0.451E-01
RMM:   3    -0.423412223861E+03    0.36599E-02   -0.15507E-03  4549   0.707E-02    0.317E-01
RMM:   4    -0.423410301084E+03    0.19228E-02   -0.73053E-04  4053   0.557E-02    0.389E-01
RMM:   5    -0.423411355953E+03   -0.10549E-02   -0.19773E-04  3287   0.346E-02    0.347E-01
RMM:   6    -0.423409624068E+03    0.17319E-02   -0.17448E-03  4283   0.780E-02    0.253E-01
RMM:   7    -0.423411715066E+03   -0.20910E-02   -0.63068E-04  3821   0.554E-02    0.102E-01
RMM:   8    -0.423411666700E+03    0.48366E-04   -0.12482E-04  3237   0.239E-02
 109 F= -.42943786E+03 E0= -.42943283E+03  d E =-.545041E-01  mag=     0.0024
       N       E                     dE             d eps       ncg     rms          rms(c)
RMM:   1    -0.423444085196E+03   -0.32370E-01   -0.42214E+00  4866   0.538E+00    0.424E-01
RMM:   2    -0.423444958479E+03   -0.87328E-03   -0.31604E-02  4864   0.373E-01    0.427E-01
RMM:   3    -0.423446081068E+03   -0.11226E-02   -0.38719E-03  4898   0.114E-01    0.432E-01
RMM:   4    -0.423442114586E+03    0.39665E-02   -0.15229E-03  4846   0.815E-02    0.352E-01
RMM:   5    -0.423440770804E+03    0.13438E-02   -0.36920E-04  3533   0.383E-02    0.379E-01
RMM:   6    -0.423442053217E+03   -0.12824E-02   -0.59909E-04  3726   0.495E-02    0.280E-01
RMM:   7    -0.423438213857E+03    0.38394E-02   -0.16394E-03  4391   0.744E-02    0.142E-01
RMM:   8    -0.423440776448E+03   -0.25626E-02   -0.22895E-04  3309   0.413E-02    0.537E-02
RMM:   9    -0.423441414987E+03   -0.63854E-03   -0.10024E-04  3125   0.209E-02    0.505E-02
RMM:  10    -0.423441450608E+03   -0.35621E-04   -0.16422E-05  2742   0.106E-02
 110 F= -.42946829E+03 E0= -.42946321E+03  d E =-.849315E-01  mag=    -0.0000
       N       E                     dE             d eps       ncg     rms          rms(c)
RMM:   1    -0.423456775276E+03   -0.15360E-01   -0.53091E-01  4864   0.188E+00    0.168E-01
RMM:   2    -0.423457957138E+03   -0.11819E-02   -0.40653E-03  4864   0.134E-01    0.274E-01
RMM:   3    -0.423456650229E+03    0.13069E-02   -0.52716E-04  3942   0.430E-02    0.150E-01
RMM:   4    -0.423456451491E+03    0.19874E-03   -0.28977E-04  3543   0.371E-02    0.857E-02
RMM:   5    -0.423456285068E+03    0.16642E-03   -0.88530E-05  3028   0.213E-02    0.370E-02
RMM:   6    -0.423456213157E+03    0.71911E-04   -0.24225E-05  2911   0.115E-02
 111 F= -.42948324E+03 E0= -.42947816E+03  d E =-.149485E-01  mag=     0.0000
       N       E                     dE             d eps       ncg     rms          rms(c)
RMM:   1    -0.423465264338E+03   -0.89793E-02   -0.12996E+00  4866   0.294E+00    0.262E-01
RMM:   2    -0.423466820585E+03   -0.15562E-02   -0.95995E-03  4864   0.208E-01    0.338E-01
RMM:   3    -0.423465375186E+03    0.14454E-02   -0.12677E-03  4537   0.659E-02    0.254E-01
RMM:   4    -0.423464624856E+03    0.75033E-03   -0.67229E-04  4635   0.549E-02    0.157E-01
RMM:   5    -0.423463856955E+03    0.76790E-03   -0.23406E-04  3364   0.314E-02    0.121E-01
RMM:   6    -0.423463877701E+03   -0.20746E-04   -0.21828E-05  2961   0.135E-02
 112 F= -.42949123E+03 E0= -.42948611E+03  d E =-.229418E-01  mag=     0.0012
       N       E                     dE             d eps       ncg     rms          rms(c)
RMM:   1    -0.423468599935E+03   -0.47430E-02   -0.14948E-01  4866   0.103E+00    0.222E-01
RMM:   2    -0.423471183809E+03   -0.25839E-02   -0.41566E-03  4861   0.115E-01    0.451E-01
RMM:   3    -0.423467772983E+03    0.34108E-02   -0.14845E-03  4429   0.653E-02    0.327E-01
RMM:   4    -0.423467767608E+03    0.53749E-05   -0.70381E-05  3074   0.239E-02
 113 F= -.42949511E+03 E0= -.42949045E+03  d E =-.388102E-02  mag=     0.0033
       N       E                     dE             d eps       ncg     rms          rms(c)
RMM:   1    -0.423470868897E+03   -0.30959E-02   -0.53878E-01  4868   0.195E+00    0.483E-01
RMM:   2    -0.423478720881E+03   -0.78520E-02   -0.17529E-02  4864   0.237E-01    0.925E-01
RMM:   3    -0.423465587861E+03    0.13133E-01   -0.64269E-03  4767   0.136E-01    0.431E-01
RMM:   4    -0.423453030414E+03    0.12557E-01   -0.13070E-03  4418   0.729E-02    0.276E-01
RMM:   5    -0.423446617201E+03    0.64132E-02   -0.49424E-04  3727   0.425E-02    0.141E-01
RMM:   6    -0.423448145918E+03   -0.15287E-02   -0.37253E-04  3652   0.336E-02    0.123E-01
RMM:   7    -0.423450844776E+03   -0.26989E-02   -0.14385E-04  3209   0.236E-02    0.564E-02
RMM:   8    -0.423452021490E+03   -0.11767E-02   -0.26401E-05  2840   0.102E-02    0.523E-02
RMM:   9    -0.423456257044E+03   -0.42356E-02   -0.95490E-05  3125   0.181E-02    0.388E-02
RMM:  10    -0.423461685004E+03   -0.54280E-02   -0.11557E-04  3169   0.205E-02    0.328E-02
RMM:  11    -0.423467910222E+03   -0.62252E-02   -0.10956E-04  3147   0.188E-02    0.224E-02
RMM:  12    -0.423471266074E+03   -0.33559E-02   -0.81201E-05  2966   0.147E-02    0.176E-02
RMM:  13    -0.423472110164E+03   -0.84409E-03   -0.31231E-05  2565   0.909E-03    0.149E-02
RMM:  14    -0.423471946867E+03    0.16330E-03   -0.21429E-05  2631   0.814E-03    0.104E-02
RMM:  15    -0.423471802988E+03    0.14388E-03   -0.43964E-06  1923   0.553E-03    0.638E-03
RMM:  16    -0.423471955871E+03   -0.15288E-03   -0.17240E-06  1548   0.441E-03    0.343E-03
RMM:  17    -0.423472124460E+03   -0.16859E-03   -0.19031E-06  1624   0.472E-03    0.176E-03
RMM:  18    -0.423472171239E+03   -0.46780E-04   -0.34506E-07  1173   0.382E-03
 114 F= -.42949951E+03 E0= -.42949543E+03  d E =-.828355E-02  mag=     0.1402
       N       E                     dE             d eps       ncg     rms          rms(c)
RMM:   1    -0.423472454153E+03   -0.32969E-03   -0.27773E-02  4866   0.443E-01    0.546E-02
RMM:   2    -0.423472497892E+03   -0.43740E-04   -0.32155E-04  3560   0.362E-02
 115 F= -.42949984E+03 E0= -.42949577E+03  d E =-.860865E-02  mag=     0.1402
       N       E                     dE             d eps       ncg     rms          rms(c)
RMM:   1    -0.423474689573E+03   -0.22354E-02   -0.11222E-01  4869   0.874E-01    0.845E-02
RMM:   2    -0.423474668882E+03    0.20691E-04   -0.10874E-03  4743   0.675E-02    0.509E-02
RMM:   3    -0.423474728150E+03   -0.59268E-04   -0.11233E-04  3103   0.217E-02
 116 F= -.42950203E+03 E0= -.42949797E+03  d E =-.218822E-02  mag=     0.1404
       N       E                     dE             d eps       ncg     rms          rms(c)
RMM:   1    -0.423474916603E+03   -0.24772E-03   -0.43320E-03  4850   0.171E-01    0.563E-02
RMM:   2    -0.423475009348E+03   -0.92745E-04   -0.16253E-04  3214   0.244E-02
 117 F= -.42950230E+03 E0= -.42949825E+03  d E =-.246178E-02  mag=     0.1406
       N       E                     dE             d eps       ncg     rms          rms(c)
RMM:   1    -0.423475255576E+03   -0.33897E-03   -0.17195E-02  4864   0.341E-01    0.766E-02
RMM:   2    -0.423475581920E+03   -0.32634E-03   -0.38793E-04  3671   0.375E-02    0.197E-01
RMM:   3    -0.423475150544E+03    0.43138E-03   -0.14140E-04  3266   0.221E-02    0.466E-02
RMM:   4    -0.423475082784E+03    0.67760E-04   -0.32477E-05  2912   0.139E-02
 118 F= -.42950236E+03 E0= -.42949838E+03  d E =-.252044E-02  mag=     0.1414
       N       E                     dE             d eps       ncg     rms          rms(c)
RMM:   1    -0.423476051431E+03   -0.90089E-03   -0.68018E-02  4870   0.671E-01    0.124E-01
RMM:   2    -0.423476698611E+03   -0.64718E-03   -0.15040E-03  4604   0.713E-02    0.204E-01
RMM:   3    -0.423476149421E+03    0.54919E-03   -0.29699E-04  3582   0.317E-02    0.895E-02
RMM:   4    -0.423476091471E+03    0.57951E-04   -0.47527E-05  2964   0.155E-02
 119 F= -.42950329E+03 E0= -.42949923E+03  d E =-.928696E-03  mag=     0.1409
       N       E                     dE             d eps       ncg     rms          rms(c)
RMM:   1    -0.423476162124E+03   -0.12702E-04   -0.11120E-02  4864   0.273E-01    0.571E-02
RMM:   2    -0.423476233517E+03   -0.71393E-04   -0.27182E-04  3410   0.310E-02
 120 F= -.42950340E+03 E0= -.42949933E+03  d E =-.103877E-02  mag=     0.1407
       N       E                     dE             d eps       ncg     rms          rms(c)
RMM:   1    -0.423476118122E+03    0.44002E-04   -0.54863E-04  4275   0.586E-02    0.364E-02
RMM:   2    -0.423476356161E+03   -0.23804E-03   -0.96357E-05  3106   0.184E-02    0.137E-01
RMM:   3    -0.423476051272E+03    0.30489E-03   -0.48585E-05  2798   0.134E-02    0.167E-02
RMM:   4    -0.423476073577E+03   -0.22304E-04   -0.98635E-06  2110   0.720E-03
 121 F= -.42950324E+03 E0= -.42949911E+03  d E =-.885600E-03  mag=     0.1402
       N       E                     dE             d eps       ncg     rms          rms(c)
RMM:   1    -0.423476084239E+03   -0.32966E-04   -0.20330E-04  3197   0.368E-02    0.892E-03
RMM:   2    -0.423476089185E+03   -0.49460E-05   -0.87830E-06  2607   0.812E-03
 122 F= -.42950326E+03 E0= -.42949913E+03  d E =-.896855E-03  mag=     0.1400
       N       E                     dE             d eps       ncg     rms          rms(c)
RMM:   1    -0.423476311130E+03   -0.22689E-03   -0.13865E-02  4864   0.316E-01    0.283E-02
RMM:   2    -0.423476324663E+03   -0.13533E-04   -0.92337E-05  3000   0.215E-02
 123 F= -.42950342E+03 E0= -.42949930E+03  d E =-.165760E-03  mag=     0.1399
       N       E                     dE             d eps       ncg     rms          rms(c)
RMM:   1    -0.423476393756E+03   -0.82626E-04   -0.78344E-03  4864   0.237E-01    0.440E-02
RMM:   2    -0.423476579913E+03   -0.18616E-03   -0.12506E-04  3141   0.233E-02    0.121E-01
RMM:   3    -0.423476391786E+03    0.18813E-03   -0.47852E-05  2919   0.137E-02    0.242E-02
RMM:   4    -0.423476424108E+03   -0.32322E-04   -0.12167E-05  2840   0.864E-03
 124 F= -.42950347E+03 E0= -.42949935E+03  d E =-.213290E-03  mag=     0.1396
       N       E                     dE             d eps       ncg     rms          rms(c)
RMM:   1    -0.423476756040E+03   -0.36425E-03   -0.16973E-02  4864   0.341E-01    0.376E-02
RMM:   2    -0.423476811672E+03   -0.55632E-04   -0.23632E-04  3350   0.292E-02
 125 F= -.42950375E+03 E0= -.42949969E+03  d E =-.285028E-03  mag=     0.1396
       N       E                     dE             d eps       ncg     rms          rms(c)
RMM:   1    -0.423476849324E+03   -0.93284E-04   -0.21233E-03  4726   0.120E-01    0.393E-02
RMM:   2    -0.423476970092E+03   -0.12077E-03   -0.89784E-05  3017   0.182E-02    0.985E-02
RMM:   3    -0.423476826907E+03    0.14318E-03   -0.34884E-05  2695   0.118E-02    0.199E-02
RMM:   4    -0.423476824179E+03    0.27279E-05   -0.86951E-06  2515   0.732E-03
 126 F= -.42950373E+03 E0= -.42949960E+03  d E =-.262375E-03  mag=     0.1392
       N       E                     dE             d eps       ncg     rms          rms(c)
RMM:   1    -0.423476960050E+03   -0.13314E-03   -0.80019E-03  4864   0.234E-01    0.243E-02
RMM:   2    -0.423476978772E+03   -0.18722E-04   -0.10163E-04  3019   0.200E-02
 127 F= -.42950382E+03 E0= -.42949971E+03  d E =-.346790E-03  mag=     0.1391
       N       E                     dE             d eps       ncg     rms          rms(c)
RMM:   1    -0.423476920800E+03    0.39251E-04   -0.79663E-04  4429   0.738E-02    0.113E-02
RMM:   2    -0.423476938541E+03   -0.17741E-04   -0.13641E-05  2602   0.901E-03
 128 F= -.42950380E+03 E0= -.42949968E+03  d E =-.329075E-03  mag=     0.1390
       N       E                     dE             d eps       ncg     rms          rms(c)
RMM:   1    -0.423477243747E+03   -0.32295E-03   -0.19089E-02  4864   0.368E-01    0.327E-02
RMM:   2    -0.423477255509E+03   -0.11763E-04   -0.16177E-04  3144   0.271E-02
 129 F= -.42950399E+03 E0= -.42949989E+03  d E =-.194148E-03  mag=     0.1390
       N       E                     dE             d eps       ncg     rms          rms(c)
RMM:   1    -0.423477347753E+03   -0.10401E-03   -0.16485E-03  4715   0.108E-01    0.244E-02
RMM:   2    -0.423477393530E+03   -0.45777E-04   -0.50007E-05  2899   0.141E-02
 130 F= -.42950409E+03 E0= -.42950003E+03  d E =-.296957E-03  mag=     0.1390
       N       E                     dE             d eps       ncg     rms          rms(c)
RMM:   1    -0.423477466655E+03   -0.11890E-03   -0.64167E-03  4860   0.214E-01    0.273E-02
RMM:   2    -0.423477479915E+03   -0.13260E-04   -0.65830E-05  2943   0.170E-02
 131 F= -.42950411E+03 E0= -.42950005E+03  d E =-.313034E-03  mag=     0.1391
       N       E                     dE             d eps       ncg     rms          rms(c)
RMM:   1    -0.423477404784E+03    0.61871E-04   -0.18870E-03  4728   0.116E-01    0.218E-02
RMM:   2    -0.423477454980E+03   -0.50196E-04   -0.37800E-05  2838   0.134E-02
 132 F= -.42950412E+03 E0= -.42950007E+03  d E =-.326874E-03  mag=     0.1391
       N       E                     dE             d eps       ncg     rms          rms(c)
RMM:   1    -0.423477428687E+03   -0.23904E-04   -0.46646E-04  4168   0.577E-02    0.116E-02
RMM:   2    -0.423477447249E+03   -0.18562E-04   -0.11611E-05  2520   0.852E-03
 133 F= -.42950410E+03 E0= -.42950003E+03  d E =-.299751E-03  mag=     0.1391
       N       E                     dE             d eps       ncg     rms          rms(c)
RMM:   1    -0.423477505403E+03   -0.76716E-04   -0.18630E-02  4865   0.351E-01    0.331E-02
RMM:   2    -0.423477512323E+03   -0.69193E-05   -0.17605E-04  3163   0.272E-02
 134 F= -.42950407E+03 E0= -.42949999E+03  d E =0.305547E-04  mag=     0.1391
       N       E                     dE             d eps       ncg     rms          rms(c)
RMM:   1    -0.423477505667E+03   -0.26378E-06   -0.62120E-04  4291   0.636E-02    0.317E-02
RMM:   2    -0.423477669746E+03   -0.16408E-03   -0.69145E-05  2928   0.164E-02    0.102E-01
RMM:   3    -0.423477490557E+03    0.17919E-03   -0.30902E-05  2687   0.110E-02    0.833E-03
RMM:   4    -0.423477499447E+03   -0.88905E-05   -0.37021E-06  1493   0.555E-03
 135 F= -.42950407E+03 E0= -.42949997E+03  d E =0.256890E-04  mag=     0.1391
       N       E                     dE             d eps       ncg     rms          rms(c)
RMM:   1    -0.423477502544E+03   -0.11987E-04   -0.20732E-04  3070   0.371E-02    0.420E-03
RMM:   2    -0.423477504101E+03   -0.15578E-05   -0.49720E-06  2210   0.705E-03
 136 F= -.42950407E+03 E0= -.42949997E+03  d E =0.314449E-04  mag=     0.1391
       N       E                     dE             d eps       ncg     rms          rms(c)
RMM:   1    -0.423477516113E+03   -0.13569E-04   -0.65013E-03  4803   0.194E-01    0.421E-02
RMM:   2    -0.423477581998E+03   -0.65885E-04   -0.16832E-04  3163   0.237E-02
 137 F= -.42950412E+03 E0= -.42950004E+03  d E =-.518108E-04  mag=     0.1390
       N       E                     dE             d eps       ncg     rms          rms(c)
RMM:   1    -0.423477517382E+03   -0.12688E-05   -0.13544E-03  4510   0.874E-02    0.194E-02
RMM:   2    -0.423477629875E+03   -0.11249E-03   -0.38243E-05  2852   0.128E-02    0.910E-02
RMM:   3    -0.423477496298E+03    0.13358E-03   -0.16003E-05  2359   0.865E-03    0.162E-02
RMM:   4    -0.423477499420E+03   -0.31223E-05   -0.36985E-06  1449   0.514E-03
 138 F= -.42950405E+03 E0= -.42949992E+03  d E =0.188529E-04  mag=     0.1389
       N       E                     dE             d eps       ncg     rms          rms(c)
RMM:   1    -0.423477498521E+03   -0.22236E-05   -0.20506E-04  2993   0.344E-02    0.670E-03
RMM:   2    -0.423477497487E+03    0.10348E-05   -0.66773E-06  2286   0.749E-03
 139 F= -.42950404E+03 E0= -.42949992E+03  d E =0.254887E-04  mag=     0.1388
