<?xml version="1.0" encoding="ISO-8859-1"?>
<modeling>
 <generator>
  <i name="program" type="string">vasp </i>
  <i name="version" type="string">5.4.4.18Apr17-6-g9f103f2a35  </i>
  <i name="subversion" type="string">(build Oct 03 2018 13:58:34) complex            parallel </i>
  <i name="platform" type="string">LinuxIFC </i>
  <i name="date" type="string">2022 02 07 </i>
  <i name="time" type="string">15:08:18 </i>
 </generator>
 <incar>
  <i type="string" name="SYSTEM"> metal</i>
  <i type="int" name="ISTART">     0</i>
  <i type="string" name="PREC">normal</i>
  <i type="int" name="IALGO">    48</i>
  <i type="int" name="NSIM">     4</i>
  <i type="int" name="ISPIN">     2</i>
  <i type="int" name="NELM">   120</i>
  <i type="int" name="IBRION">     2</i>
  <i name="EDIFFG">     -0.01000000</i>
  <i type="int" name="NSW">   500</i>
  <i type="int" name="ISIF">     0</i>
  <i type="int" name="ISYM">     2</i>
  <i name="ENCUT">    450.00000000</i>
  <i type="string" name="LREAL">A</i>
  <i type="int" name="ISMEAR">     0</i>
  <i name="SIGMA">      0.05000000</i>
  <i type="logical" name="LWAVE"> F  </i>
  <i type="logical" name="LCHARG"> F  </i>
  <v type="int" name="KPOINT_BSE">    -1     0     0     0</v>
  <i type="int" name="NELM">   120</i>
  <i type="int" name="VOSKOWN">     0</i>
 </incar>
 <structure name="primitive_cell" >
  <crystal>
   <varray name="basis" >
    <v>       4.26620007       0.00000000       0.00000000 </v>
    <v>       0.00000000      39.40950012       0.00000000 </v>
    <v>      -1.42206471       0.00000000       3.18109970 </v>
   </varray>
   <i name="volume">    534.83451311 </i>
   <varray name="rec_basis" >
    <v>       0.23440063       0.00000000       0.10478542 </v>
    <v>       0.00000000       0.02537459       0.00000000 </v>
    <v>       0.00000000       0.00000000       0.31435670 </v>
   </varray>
  </crystal>
  <varray name="positions" >
   <v>       0.00000000       0.00000000       0.00000000 </v>
   <v>       0.33300000       0.00000000       0.00000000 </v>
   <v>      -0.16700000       0.03123100       0.00000000 </v>
   <v>      -0.16700000      -0.03127098       0.00000000 </v>
   <v>      -0.50000000       0.03123100       0.00000000 </v>
   <v>       0.00000000       0.06250200       0.00000000 </v>
   <v>      -0.50000000      -0.03127098       0.00000000 </v>
   <v>       0.00000000      -0.06255102       0.00000000 </v>
   <v>       0.33300000       0.06250200       0.00000000 </v>
   <v>       0.33300000      -0.06255102       0.00000000 </v>
   <v>      -0.16700000      -0.09377599       0.00000000 </v>
   <v>      -0.16700000       0.09378200       0.00000000 </v>
   <v>      -0.50000000      -0.09377599       0.00000000 </v>
   <v>      -0.50000000       0.09378200       0.00000000 </v>
   <v>       0.00000000       0.12500601       0.00000000 </v>
   <v>       0.00000000      -0.12503898       0.00000000 </v>
   <v>       0.33300000       0.12500601       0.00000000 </v>
   <v>       0.33300000      -0.12503898       0.00000000 </v>
   <v>      -0.16700000       0.15626900       0.00000000 </v>
   <v>      -0.16700000      -0.15633100       0.00000000 </v>
   <v>      -0.50000000       0.15626900       0.00000000 </v>
   <v>      -0.50000000      -0.15633100       0.00000000 </v>
   <v>       0.00000000      -0.18753701       0.00000000 </v>
   <v>       0.00000000       0.18756101       0.00000000 </v>
   <v>       0.33300000      -0.18753701       0.00000000 </v>
   <v>       0.33300000       0.18756101       0.00000000 </v>
   <v>      -0.16700000       0.21876700       0.00000000 </v>
   <v>      -0.16700000      -0.21877801       0.00000000 </v>
   <v>      -0.50000000       0.21876700       0.00000000 </v>
   <v>      -0.50000000      -0.21877801       0.00000000 </v>
   <v>       0.00000000       0.25000900       0.00000000 </v>
   <v>       0.00000000      -0.25011498       0.00000000 </v>
   <v>       0.33300000       0.25000900       0.00000000 </v>
   <v>       0.33300000      -0.25011498       0.00000000 </v>
   <v>      -0.16700000      -0.28126699       0.00000000 </v>
   <v>      -0.16700000       0.28134501       0.00000000 </v>
   <v>      -0.50000000      -0.28126699       0.00000000 </v>
   <v>      -0.50000000       0.28134501       0.00000000 </v>
   <v>       0.00000000      -0.31232202       0.00000000 </v>
   <v>       0.00000000       0.31249699       0.00000000 </v>
   <v>       0.33300000      -0.31232202       0.00000000 </v>
   <v>       0.33300000       0.31249699       0.00000000 </v>
   <v>      -0.15414900      -0.34309202       0.00000000 </v>
   <v>      -0.16700000       0.34355301       0.00000000 </v>
   <v>       0.48762602      -0.34309202       0.00000000 </v>
   <v>      -0.50000000       0.34355301       0.00000000 </v>
   <v>      -0.01237404       0.37432301       0.00000000 </v>
   <v>       0.34584999       0.37432301       0.00000000 </v>
  </varray>
 </structure>
 <varray name="primitive_index" >
  <v type="int" >        1 </v>
  <v type="int" >        2 </v>
  <v type="int" >        4 </v>
  <v type="int" >       44 </v>
  <v type="int" >        3 </v>
  <v type="int" >        5 </v>
  <v type="int" >       43 </v>
  <v type="int" >       41 </v>
  <v type="int" >        6 </v>
  <v type="int" >       42 </v>
  <v type="int" >       40 </v>
  <v type="int" >        8 </v>
  <v type="int" >       39 </v>
  <v type="int" >        7 </v>
  <v type="int" >        9 </v>
  <v type="int" >       37 </v>
  <v type="int" >       10 </v>
  <v type="int" >       38 </v>
  <v type="int" >       12 </v>
  <v type="int" >       36 </v>
  <v type="int" >       11 </v>
  <v type="int" >       35 </v>
  <v type="int" >       33 </v>
  <v type="int" >       13 </v>
  <v type="int" >       34 </v>
  <v type="int" >       14 </v>
  <v type="int" >       16 </v>
  <v type="int" >       32 </v>
  <v type="int" >       15 </v>
  <v type="int" >       31 </v>
  <v type="int" >       17 </v>
  <v type="int" >       29 </v>
  <v type="int" >       18 </v>
  <v type="int" >       30 </v>
  <v type="int" >       28 </v>
  <v type="int" >       20 </v>
  <v type="int" >       27 </v>
  <v type="int" >       19 </v>
  <v type="int" >       25 </v>
  <v type="int" >       21 </v>
  <v type="int" >       26 </v>
  <v type="int" >       22 </v>
  <v type="int" >       48 </v>
  <v type="int" >       24 </v>
  <v type="int" >       47 </v>
  <v type="int" >       23 </v>
  <v type="int" >       45 </v>
  <v type="int" >       46 </v>
 </varray>
 <kpoints>
  <generation param="Gamma">
   <v type="int" name="divisions">       6        1        2 </v>
   <v name="usershift">      0.00000000       0.00000000       0.00000000 </v>
   <v name="genvec1">      0.16666667       0.00000000      -0.00000000 </v>
   <v name="genvec2">      0.00000000       1.00000000       0.00000000 </v>
   <v name="genvec3">      0.00000000       0.00000000       0.50000000 </v>
   <v name="shift">      0.00000000       0.00000000       0.00000000 </v>
  </generation>
  <varray name="kpointlist" >
   <v>       0.00000000       0.00000000       0.00000000 </v>
   <v>       0.16666667       0.00000000       0.00000000 </v>
   <v>       0.33333333       0.00000000       0.00000000 </v>
   <v>       0.50000000       0.00000000       0.00000000 </v>
   <v>       0.00000000       0.00000000       0.50000000 </v>
   <v>       0.16666667       0.00000000       0.50000000 </v>
   <v>       0.33333333       0.00000000       0.50000000 </v>
   <v>       0.50000000       0.00000000       0.50000000 </v>
  </varray>
  <varray name="weights" >
   <v>       0.08333333 </v>
   <v>       0.16666667 </v>
   <v>       0.16666667 </v>
   <v>       0.08333333 </v>
   <v>       0.08333333 </v>
   <v>       0.16666667 </v>
   <v>       0.16666667 </v>
   <v>       0.08333333 </v>
  </varray>
 </kpoints>
 <parameters>
  <separator name="general" >
   <i type="string" name="SYSTEM">metal</i>
   <i type="logical" name="LCOMPAT"> F  </i>
  </separator>
  <separator name="electronic" >
   <i type="string" name="PREC">normal</i>
   <i name="ENMAX">    450.00000000</i>
   <i name="ENAUG">    644.87300000</i>
   <i name="EDIFF">      0.00010000</i>
   <i type="int" name="IALGO">    48</i>
   <i type="int" name="IWAVPR">    11</i>
   <i type="int" name="NBANDS">   152</i>
   <i name="NELECT">    200.00000000</i>
   <i type="int" name="TURBO">     0</i>
   <i type="int" name="IRESTART">     0</i>
   <i type="int" name="NREBOOT">     0</i>
   <i type="int" name="NMIN">     0</i>
   <i name="EREF">      0.00000000</i>
   <separator name="electronic smearing" >
    <i type="int" name="ISMEAR">     0</i>
    <i name="SIGMA">      0.05000000</i>
    <i name="KSPACING">      0.50000000</i>
    <i type="logical" name="KGAMMA"> T  </i>
   </separator>
   <separator name="electronic projectors" >
    <i type="logical" name="LREAL"> T  </i>
    <v name="ROPT">     -0.00050000     -0.00050000</v>
    <i type="int" name="LMAXPAW">  -100</i>
    <i type="int" name="LMAXMIX">     2</i>
    <i type="logical" name="NLSPLINE"> F  </i>
   </separator>
   <separator name="electronic startup" >
    <i type="int" name="ISTART">     0</i>
    <i type="int" name="ICHARG">     2</i>
    <i type="int" name="INIWAV">     1</i>
   </separator>
   <separator name="electronic spin" >
    <i type="int" name="ISPIN">     2</i>
    <i type="logical" name="LNONCOLLINEAR"> F  </i>
    <v name="MAGMOM">      1.00000000      1.00000000      1.00000000      1.00000000      1.00000000      1.00000000      1.00000000      1.00000000      1.00000000      1.00000000      1.00000000      1.00000000      1.00000000      1.00000000      1.00000000      1.00000000      1.00000000      1.00000000      1.00000000      1.00000000
      1.00000000      1.00000000      1.00000000      1.00000000      1.00000000      1.00000000      1.00000000      1.00000000      1.00000000      1.00000000      1.00000000      1.00000000      1.00000000      1.00000000      1.00000000      1.00000000      1.00000000      1.00000000      1.00000000      1.00000000
      1.00000000      1.00000000      1.00000000      1.00000000      1.00000000      1.00000000      1.00000000      1.00000000</v>
    <i name="NUPDOWN">     -1.00000000</i>
    <i type="logical" name="LSORBIT"> F  </i>
    <v name="SAXIS">      0.00000000      0.00000000      1.00000000</v>
    <i type="logical" name="LSPIRAL"> F  </i>
    <v name="QSPIRAL">      0.00000000      0.00000000      0.00000000</v>
    <i type="logical" name="LZEROZ"> F  </i>
   </separator>
   <separator name="electronic exchange-correlation" >
    <i type="logical" name="LASPH"> F  </i>
    <i type="logical" name="LMETAGGA"> F  </i>
   </separator>
   <separator name="electronic convergence" >
    <i type="int" name="NELM">   120</i>
    <i type="int" name="NELMDL">   -12</i>
    <i type="int" name="NELMIN">     2</i>
    <i name="ENINI">    450.00000000</i>
    <separator name="electronic convergence detail" >
     <i type="logical" name="LDIAG"> T  </i>
     <i type="logical" name="LSUBROT"> F  </i>
     <i name="WEIMIN">      0.00100000</i>
     <i name="EBREAK">      0.00000016</i>
     <i name="DEPER">      0.30000000</i>
     <i type="int" name="NRMM">     4</i>
     <i name="TIME">      0.40000000</i>
    </separator>
   </separator>
   <separator name="electronic mixer" >
    <i name="AMIX">      0.40000000</i>
    <i name="BMIX">      1.00000000</i>
    <i name="AMIN">      0.10000000</i>
    <i name="AMIX_MAG">      1.60000000</i>
    <i name="BMIX_MAG">      1.00000000</i>
    <separator name="electronic mixer details" >
     <i type="int" name="IMIX">     4</i>
     <i type="logical" name="MIXFIRST"> F  </i>
     <i type="int" name="MAXMIX">   -45</i>
     <i name="WC">    100.00000000</i>
     <i type="int" name="INIMIX">     1</i>
     <i type="int" name="MIXPRE">     1</i>
     <i type="int" name="MREMOVE">     5</i>
    </separator>
   </separator>
   <separator name="electronic dipolcorrection" >
    <i type="logical" name="LDIPOL"> F  </i>
    <i type="logical" name="LMONO"> F  </i>
    <i type="int" name="IDIPOL">     0</i>
    <i name="EPSILON">      1.00000000</i>
    <v name="DIPOL">   -100.00000000   -100.00000000   -100.00000000</v>
    <i name="EFIELD">      0.00000000</i>
   </separator>
  </separator>
  <separator name="grids" >
   <i type="int" name="NGX">    24</i>
   <i type="int" name="NGY">   210</i>
   <i type="int" name="NGZ">    18</i>
   <i type="int" name="NGXF">    48</i>
   <i type="int" name="NGYF">   420</i>
   <i type="int" name="NGZF">    36</i>
   <i type="logical" name="ADDGRID"> F  </i>
  </separator>
  <separator name="ionic" >
   <i type="int" name="NSW">   500</i>
   <i type="int" name="IBRION">     2</i>
   <i type="int" name="MDALGO">     0</i>
   <i type="int" name="ISIF">     0</i>
   <i name="PSTRESS">      0.00000000</i>
   <i name="EDIFFG">     -0.01000000</i>
   <i type="int" name="NFREE">     1</i>
   <i name="POTIM">      0.50000000</i>
   <i name="SMASS">     -3.00000000</i>
   <i name="SCALEE">      1.00000000</i>
  </separator>
  <separator name="ionic md" >
   <i name="TEBEG">      0.00010000</i>
   <i name="TEEND">      0.00010000</i>
   <i type="int" name="NBLOCK">     1</i>
   <i type="int" name="KBLOCK">   500</i>
   <i type="int" name="NPACO">   256</i>
   <i name="APACO">     16.00000000</i>
  </separator>
  <separator name="symmetry" >
   <i type="int" name="ISYM">     2</i>
   <i name="SYMPREC">      0.00001000</i>
  </separator>
  <separator name="dos" >
   <i type="int" name="LORBIT">     0</i>
   <v name="RWIGS">     -1.00000000     -1.00000000</v>
   <i type="int" name="NEDOS">   301</i>
   <i name="EMIN">     10.00000000</i>
   <i name="EMAX">    -10.00000000</i>
   <i name="EFERMI">      0.00000000</i>
  </separator>
  <separator name="writing" >
   <i type="int" name="NWRITE">     2</i>
   <i type="logical" name="LWAVE"> F  </i>
   <i type="logical" name="LDOWNSAMPLE"> F  </i>
   <i type="logical" name="LCHARG"> F  </i>
   <i type="logical" name="LPARD"> F  </i>
   <i type="logical" name="LVTOT"> F  </i>
   <i type="logical" name="LVHAR"> F  </i>
   <i type="logical" name="LELF"> F  </i>
   <i type="logical" name="LOPTICS"> F  </i>
   <v name="STM">      0.00000000      0.00000000      0.00000000      0.00000000      0.00000000      0.00000000      0.00000000</v>
  </separator>
  <separator name="performance" >
   <i type="int" name="NPAR">     4</i>
   <i type="int" name="NSIM">     4</i>
   <i type="int" name="NBLK">    -1</i>
   <i type="logical" name="LPLANE"> T  </i>
   <i type="logical" name="LSCALAPACK"> T  </i>
   <i type="logical" name="LSCAAWARE"> F  </i>
   <i type="logical" name="LSCALU"> F  </i>
   <i type="logical" name="LASYNC"> F  </i>
   <i type="logical" name="LORBITALREAL"> F  </i>
  </separator>
  <separator name="miscellaneous" >
   <i type="int" name="IDIOT">     3</i>
   <i type="int" name="ISPECIAL">     0</i>
   <i type="logical" name="LMUSIC"> F  </i>
   <v name="POMASS">     12.01100000     16.00000000</v>
   <v name="DARWINR">      0.00000000      0.00000000</v>
   <v name="DARWINV">      1.00000000      1.00000000</v>
   <i type="logical" name="LCORR"> T  </i>
  </separator>
  <i type="logical" name="GGA_COMPAT"> T  </i>
  <i type="logical" name="LBERRY"> F  </i>
  <i type="int" name="ICORELEVEL">     0</i>
  <i type="logical" name="LDAU"> F  </i>
  <i type="int" name="I_CONSTRAINED_M">     0</i>
  <separator name="electronic exchange-correlation" >
   <i type="string" name="GGA">--</i>
   <i type="int" name="VOSKOWN">     0</i>
   <i type="logical" name="LHFCALC"> F  </i>
   <i type="string" name="PRECFOCK"></i>
   <i type="logical" name="LSYMGRAD"> F  </i>
   <i type="logical" name="LHFONE"> F  </i>
   <i type="logical" name="LRHFCALC"> F  </i>
   <i type="logical" name="LTHOMAS"> F  </i>
   <i type="logical" name="LMODELHF"> F  </i>
   <i name="ENCUT4O">     -1.00000000</i>
   <i type="int" name="EXXOEP">     0</i>
   <i type="int" name="FOURORBIT">     0</i>
   <i name="AEXX">      0.00000000</i>
   <i name="HFALPHA">      0.00000000</i>
   <i name="MCALPHA">      0.00000000</i>
   <i name="ALDAX">      1.00000000</i>
   <i name="AGGAX">      1.00000000</i>
   <i name="ALDAC">      1.00000000</i>
   <i name="AGGAC">      1.00000000</i>
   <i type="int" name="NKREDX">     1</i>
   <i type="int" name="NKREDY">     1</i>
   <i type="int" name="NKREDZ">     1</i>
   <i type="logical" name="SHIFTRED"> F  </i>
   <i type="logical" name="ODDONLY"> F  </i>
   <i type="logical" name="EVENONLY"> F  </i>
   <i type="int" name="LMAXFOCK">     0</i>
   <i type="int" name="NMAXFOCKAE">     0</i>
   <i type="logical" name="LFOCKAEDFT"> F  </i>
   <i name="HFSCREEN">      0.00000000</i>
   <i name="HFSCREENC">      0.00000000</i>
   <i type="int" name="NBANDSGWLOW">     0</i>
  </separator>
  <separator name="vdW DFT" >
   <i type="logical" name="LUSE_VDW"> F  </i>
   <i name="Zab_VDW">     -0.84910000</i>
   <i name="PARAM1">      0.12340000</i>
   <i name="PARAM2">      1.00000000</i>
   <i name="PARAM3">      0.00000000</i>
  </separator>
  <separator name="model GW" >
   <i type="int" name="MODEL_GW">     0</i>
   <i name="MODEL_EPS0">      6.68543141</i>
   <i name="MODEL_ALPHA">      1.00000000</i>
  </separator>
  <separator name="linear response parameters" >
   <i type="logical" name="LEPSILON"> F  </i>
   <i type="logical" name="LRPA"> F  </i>
   <i type="logical" name="LNABLA"> F  </i>
   <i type="logical" name="LVEL"> F  </i>
   <i type="int" name="KINTER">     0</i>
   <i name="CSHIFT">      0.10000000</i>
   <i name="OMEGAMAX">     -1.00000000</i>
   <i name="DEG_THRESHOLD">      0.00200000</i>
   <i name="RTIME">     -0.10000000</i>
   <i name="WPLASMAI">      0.00000000</i>
   <v name="DFIELD">      0.00000000      0.00000000      0.00000000</v>
   <v name="WPLASMA">      0.00000000      0.00000000      0.00000000      0.00000000      0.00000000      0.00000000      0.00000000      0.00000000      0.00000000</v>
  </separator>
  <separator name="orbital magnetization" >
   <i type="logical" name="NUCIND"> F  </i>
   <v name="MAGPOS">      0.00000000      0.00000000      0.00000000</v>
   <i type="logical" name="LNICSALL"> T  </i>
   <i type="logical" name="ORBITALMAG"> F  </i>
   <i type="logical" name="LMAGBLOCH"> F  </i>
   <i type="logical" name="LCHIMAG"> F  </i>
   <i type="logical" name="LGAUGE"> T  </i>
   <i type="int" name="MAGATOM">     0</i>
   <v name="MAGDIPOL">      0.00000000      0.00000000      0.00000000</v>
   <v name="AVECCONST">      0.00000000      0.00000000      0.00000000</v>
  </separator>
  <separator name="response functions" >
   <i type="logical" name="LADDER"> F  </i>
   <i type="logical" name="LRPAFORCE"> F  </i>
   <i type="logical" name="LFXC"> F  </i>
   <i type="logical" name="LHARTREE"> T  </i>
   <i type="int" name="IBSE">     0</i>
   <v type="int" name="KPOINT">    -1     0     0     0</v>
   <i type="logical" name="LTCTE"> F  </i>
   <i type="logical" name="LTETE"> F  </i>
   <i type="logical" name="LTRIPLET"> F  </i>
   <i type="logical" name="LFXCEPS"> F  </i>
   <i type="logical" name="LFXHEG"> F  </i>
   <i type="int" name="NATURALO">     2</i>
   <i type="logical" name="L2ORDER"> F  </i>
   <i type="logical" name="LMP2LT"> F  </i>
   <i type="logical" name="LUSEW"> F  </i>
   <i name="ENCUTGW">     -2.00000000</i>
   <i name="ENCUTGWSOFT">     -2.00000000</i>
   <i name="ENCUTLF">     -1.00000000</i>
   <i type="int" name="LMAXMP2">    -1</i>
   <i name="SCISSOR">      0.00000000</i>
   <i type="int" name="NOMEGA">     0</i>
   <i type="int" name="NOMEGAR">     0</i>
   <i type="int" name="NBANDSGW">    -1</i>
   <i type="int" name="NBANDSO">    -1</i>
   <i type="int" name="NBANDSV">    -1</i>
   <i type="int" name="NELM">   120</i>
   <i type="int" name="NELMHF">     1</i>
   <i type="int" name="DIM">     3</i>
   <i type="int" name="ANTIRES">     0</i>
   <i name="OMEGAMAX">    -30.00000000</i>
   <i name="OMEGAMIN">    -30.00000000</i>
   <i name="OMEGATL">   -200.00000000</i>
   <i type="int" name="OMEGAGRID">   140</i>
   <i name="CSHIFT">     -0.10000000</i>
   <i type="logical" name="SELFENERGY"> F  </i>
   <i type="logical" name="LSPECTRAL"> F  </i>
   <i type="logical" name="LSPECTRALGW"> F  </i>
   <i type="logical" name="LSINGLES"> F  </i>
   <i type="logical" name="LFERMIGW"> F  </i>
   <i type="logical" name="ODDONLYGW"> F  </i>
   <i type="logical" name="EVENONLYGW"> F  </i>
   <i type="int" name="NKREDLFX">     1</i>
   <i type="int" name="NKREDLFY">     1</i>
   <i type="int" name="NKREDLFZ">     1</i>
   <i type="int" name="MAXMEM">  2800</i>
   <i type="int" name="TELESCOPE">     0</i>
   <i type="int" name="TAUPAR">     1</i>
   <i type="int" name="OMEGAPAR">    -1</i>
   <i name="LAMBDA">      1.00000000</i>
  </separator>
  <separator name="External order field" >
   <i name="OFIELD_KAPPA">      0.00000000</i>
   <v name="OFIELD_K">      0.00000000      0.00000000      0.00000000</v>
   <i name="OFIELD_Q6_NEAR">      0.00000000</i>
   <i name="OFIELD_Q6_FAR">      0.00000000</i>
   <i name="OFIELD_A">      0.00000000</i>
  </separator>
 </parameters>
 <atominfo>
  <atoms>      48 </atoms>
  <types>       2 </types>
  <array name="atoms" >
   <dimension dim="1">ion</dimension>
   <field type="string">element</field>
   <field type="int">atomtype</field>
   <set>
    <rc><c>C </c><c>   1</c></rc>
    <rc><c>C </c><c>   1</c></rc>
    <rc><c>C </c><c>   1</c></rc>
    <rc><c>C </c><c>   1</c></rc>
    <rc><c>C </c><c>   1</c></rc>
    <rc><c>C </c><c>   1</c></rc>
    <rc><c>C </c><c>   1</c></rc>
    <rc><c>C </c><c>   1</c></rc>
    <rc><c>C </c><c>   1</c></rc>
    <rc><c>C </c><c>   1</c></rc>
    <rc><c>C </c><c>   1</c></rc>
    <rc><c>C </c><c>   1</c></rc>
    <rc><c>C </c><c>   1</c></rc>
    <rc><c>C </c><c>   1</c></rc>
    <rc><c>C </c><c>   1</c></rc>
    <rc><c>C </c><c>   1</c></rc>
    <rc><c>C </c><c>   1</c></rc>
    <rc><c>C </c><c>   1</c></rc>
    <rc><c>C </c><c>   1</c></rc>
    <rc><c>C </c><c>   1</c></rc>
    <rc><c>C </c><c>   1</c></rc>
    <rc><c>C </c><c>   1</c></rc>
    <rc><c>C </c><c>   1</c></rc>
    <rc><c>C </c><c>   1</c></rc>
    <rc><c>C </c><c>   1</c></rc>
    <rc><c>C </c><c>   1</c></rc>
    <rc><c>C </c><c>   1</c></rc>
    <rc><c>C </c><c>   1</c></rc>
    <rc><c>C </c><c>   1</c></rc>
    <rc><c>C </c><c>   1</c></rc>
    <rc><c>C </c><c>   1</c></rc>
    <rc><c>C </c><c>   1</c></rc>
    <rc><c>C </c><c>   1</c></rc>
    <rc><c>C </c><c>   1</c></rc>
    <rc><c>C </c><c>   1</c></rc>
    <rc><c>C </c><c>   1</c></rc>
    <rc><c>C </c><c>   1</c></rc>
    <rc><c>C </c><c>   1</c></rc>
    <rc><c>C </c><c>   1</c></rc>
    <rc><c>C </c><c>   1</c></rc>
    <rc><c>C </c><c>   1</c></rc>
    <rc><c>C </c><c>   1</c></rc>
    <rc><c>C </c><c>   1</c></rc>
    <rc><c>C </c><c>   1</c></rc>
    <rc><c>O </c><c>   2</c></rc>
    <rc><c>O </c><c>   2</c></rc>
    <rc><c>O </c><c>   2</c></rc>
    <rc><c>O </c><c>   2</c></rc>
   </set>
  </array>
  <array name="atomtypes" >
   <dimension dim="1">type</dimension>
   <field type="int">atomspertype</field>
   <field type="string">element</field>
   <field>mass</field>
   <field>valence</field>
   <field type="string">pseudopotential</field>
   <set>
    <rc><c>  44</c><c>C </c><c>     12.01100000</c><c>      4.00000000</c><c>  PAW_PBE C 08Apr2002                   </c></rc>
    <rc><c>   4</c><c>O </c><c>     16.00000000</c><c>      6.00000000</c><c>  PAW_PBE O 08Apr2002                   </c></rc>
   </set>
  </array>
 </atominfo>
 <structure name="initialpos" >
  <crystal>
   <varray name="basis" >
    <v>       4.26620007       0.00000000       0.00000000 </v>
    <v>       0.00000000      39.40950012       0.00000000 </v>
    <v>      -1.42206471       0.00000000       3.18109970 </v>
   </varray>
   <i name="volume">    534.83451311 </i>
   <varray name="rec_basis" >
    <v>       0.23440063       0.00000000       0.10478542 </v>
    <v>       0.00000000       0.02537459       0.00000000 </v>
    <v>       0.00000000       0.00000000       0.31435670 </v>
   </varray>
  </crystal>
  <varray name="positions" >
   <v>       0.00000000       0.00000000       0.00000000 </v>
   <v>       0.33300000       0.00000000       0.00000000 </v>
   <v>       0.50000000       0.03123100       0.00000000 </v>
   <v>       0.83300000       0.03123100       0.00000000 </v>
   <v>       0.00000000       0.06250200       0.00000000 </v>
   <v>       0.33300000       0.06250200       0.00000000 </v>
   <v>       0.50000000       0.09378200       0.00000000 </v>
   <v>       0.83300000       0.09378200       0.00000000 </v>
   <v>       0.00000000       0.12500601       0.00000000 </v>
   <v>       0.33300000       0.12500601       0.00000000 </v>
   <v>       0.50000000       0.15626900       0.00000000 </v>
   <v>       0.83300000       0.15626900       0.00000000 </v>
   <v>       0.00000000       0.18756100       0.00000000 </v>
   <v>       0.33300000       0.18756100       0.00000000 </v>
   <v>       0.50000000       0.21876700       0.00000000 </v>
   <v>       0.83300000       0.21876700       0.00000000 </v>
   <v>       0.00000000       0.25000900       0.00000000 </v>
   <v>       0.33300000       0.25000900       0.00000000 </v>
   <v>       0.50000000       0.28134501       0.00000000 </v>
   <v>       0.83300000       0.28134501       0.00000000 </v>
   <v>       0.00000000       0.31249699       0.00000000 </v>
   <v>       0.33300000       0.31249699       0.00000000 </v>
   <v>       0.50000000       0.34355301       0.00000000 </v>
   <v>       0.83300000       0.34355301       0.00000000 </v>
   <v>       0.00000000       0.68767798       0.00000000 </v>
   <v>       0.33300000       0.68767798       0.00000000 </v>
   <v>       0.50000000       0.71873301       0.00000000 </v>
   <v>       0.83300000       0.71873301       0.00000000 </v>
   <v>       0.00000000       0.74988502       0.00000000 </v>
   <v>       0.33300000       0.74988502       0.00000000 </v>
   <v>       0.50000000       0.78122199       0.00000000 </v>
   <v>       0.83300000       0.78122199       0.00000000 </v>
   <v>       0.00000000       0.81246299       0.00000000 </v>
   <v>       0.33300000       0.81246299       0.00000000 </v>
   <v>       0.50000000       0.84366900       0.00000000 </v>
   <v>       0.83300000       0.84366900       0.00000000 </v>
   <v>       0.00000000       0.87496102       0.00000000 </v>
   <v>       0.33300000       0.87496102       0.00000000 </v>
   <v>       0.50000000       0.90622401       0.00000000 </v>
   <v>       0.83300000       0.90622401       0.00000000 </v>
   <v>       0.00000000       0.93744898       0.00000000 </v>
   <v>       0.33300000       0.93744898       0.00000000 </v>
   <v>       0.50000000       0.96872902       0.00000000 </v>
   <v>       0.83300000       0.96872902       0.00000000 </v>
   <v>       0.98762596       0.37432301       0.00000000 </v>
   <v>       0.34584999       0.37432301       0.00000000 </v>
   <v>       0.48762602       0.65690798       0.00000000 </v>
   <v>       0.84585100       0.65690798       0.00000000 </v>
  </varray>
  <varray name="selective"  type="logical" >
   <v type="logical" >  T  T  F </v>
   <v type="logical" >  T  T  F </v>
   <v type="logical" >  T  T  F </v>
   <v type="logical" >  T  T  F </v>
   <v type="logical" >  T  T  F </v>
   <v type="logical" >  T  T  F </v>
   <v type="logical" >  T  T  F </v>
   <v type="logical" >  T  T  F </v>
   <v type="logical" >  T  T  F </v>
   <v type="logical" >  T  T  F </v>
   <v type="logical" >  T  T  F </v>
   <v type="logical" >  T  T  F </v>
   <v type="logical" >  T  T  F </v>
   <v type="logical" >  T  T  F </v>
   <v type="logical" >  T  T  F </v>
   <v type="logical" >  T  T  F </v>
   <v type="logical" >  T  T  F </v>
   <v type="logical" >  T  T  F </v>
   <v type="logical" >  T  T  F </v>
   <v type="logical" >  T  T  F </v>
   <v type="logical" >  T  T  F </v>
   <v type="logical" >  T  T  F </v>
   <v type="logical" >  T  T  F </v>
   <v type="logical" >  T  T  F </v>
   <v type="logical" >  T  T  F </v>
   <v type="logical" >  T  T  F </v>
   <v type="logical" >  T  T  F </v>
   <v type="logical" >  T  T  F </v>
   <v type="logical" >  T  T  F </v>
   <v type="logical" >  T  T  F </v>
   <v type="logical" >  T  T  F </v>
   <v type="logical" >  T  T  F </v>
   <v type="logical" >  T  T  F </v>
   <v type="logical" >  T  T  F </v>
   <v type="logical" >  T  T  F </v>
   <v type="logical" >  T  T  F </v>
   <v type="logical" >  T  T  F </v>
   <v type="logical" >  T  T  F </v>
   <v type="logical" >  T  T  F </v>
   <v type="logical" >  T  T  F </v>
   <v type="logical" >  T  T  F </v>
   <v type="logical" >  T  T  F </v>
   <v type="logical" >  T  T  F </v>
   <v type="logical" >  T  T  F </v>
   <v type="logical" >  T  T  F </v>
   <v type="logical" >  T  T  F </v>
   <v type="logical" >  T  T  F </v>
   <v type="logical" >  T  T  F </v>
  </varray>
  <nose>
   <v>      -3.00000000       0.00000000       0.00010000       0.00010000 </v>
  </nose>
 </structure>
 <calculation>
  <scstep>
   <time name="diag">    0.52    0.52</time>
   <time name="diis">    0.67    0.68</time>
   <time name="orth">    0.09    0.09</time>
   <time name="total">    1.32    1.35</time>
   <energy>
    <i name="alphaZ">    372.54520999 </i>
    <i name="ewald">  37974.65546195 </i>
    <i name="hartreedc"> -45835.43307530 </i>
    <i name="XCdc">    702.46474300 </i>
    <i name="pawpsdc">   6154.95120234 </i>
    <i name="pawaedc">  -6186.79106147 </i>
    <i name="eentropy">     -0.00807880 </i>
    <i name="bandstr">    781.10889346 </i>
    <i name="atom">   8203.71208324 </i>
    <i name="e_fr_energy">   2167.20537842 </i>
    <i name="e_wo_entrp">   2167.21345722 </i>
    <i name="e_0_energy">   2167.20941782 </i>
   </energy>
  </scstep>
  <scstep>
   <time name="diag">    0.51    0.51</time>
   <time name="diis">    0.67    0.67</time>
   <time name="orth">    0.08    0.09</time>
   <time name="total">    1.27    1.27</time>
   <energy>
    <i name="e_fr_energy">    440.03709452 </i>
    <i name="e_wo_entrp">    440.04970904 </i>
    <i name="e_0_energy">    440.04340178 </i>
   </energy>
  </scstep>
  <scstep>
   <time name="diag">    0.50    0.51</time>
   <time name="diis">    0.67    0.67</time>
   <time name="orth">    0.09    0.09</time>
   <time name="total">    1.26    1.27</time>
   <energy>
    <i name="e_fr_energy">   -145.45476437 </i>
    <i name="e_wo_entrp">   -145.44398071 </i>
    <i name="e_0_energy">   -145.44937254 </i>
   </energy>
  </scstep>
  <scstep>
   <time name="diag">    0.50    0.51</time>
   <time name="diis">    0.68    0.69</time>
   <time name="orth">    0.09    0.09</time>
   <time name="total">    1.28    1.28</time>
   <energy>
    <i name="e_fr_energy">   -350.32713110 </i>
    <i name="e_wo_entrp">   -350.32340189 </i>
    <i name="e_0_energy">   -350.32526650 </i>
   </energy>
  </scstep>
  <scstep>
   <time name="diag">    0.50    0.51</time>
   <time name="diis">    0.67    0.67</time>
   <time name="orth">    0.08    0.08</time>
   <time name="total">    1.26    1.27</time>
   <energy>
    <i name="e_fr_energy">   -404.23052010 </i>
    <i name="e_wo_entrp">   -404.22109038 </i>
    <i name="e_0_energy">   -404.22580524 </i>
   </energy>
  </scstep>
  <scstep>
   <time name="diag">    0.51    0.51</time>
   <time name="diis">    0.67    0.68</time>
   <time name="orth">    0.08    0.08</time>
   <time name="total">    1.27    1.27</time>
   <energy>
    <i name="e_fr_energy">   -421.72821531 </i>
    <i name="e_wo_entrp">   -421.71755522 </i>
    <i name="e_0_energy">   -421.72288526 </i>
   </energy>
  </scstep>
  <scstep>
   <time name="diag">    0.51    0.51</time>
   <time name="diis">    0.67    0.67</time>
   <time name="orth">    0.08    0.08</time>
   <time name="total">    1.26    1.27</time>
   <energy>
    <i name="e_fr_energy">   -427.57677637 </i>
    <i name="e_wo_entrp">   -427.56716186 </i>
    <i name="e_0_energy">   -427.57196912 </i>
   </energy>
  </scstep>
  <scstep>
   <time name="diag">    0.50    0.50</time>
   <time name="diis">    0.68    0.68</time>
   <time name="orth">    0.09    0.09</time>
   <time name="total">    1.27    1.27</time>
   <energy>
    <i name="e_fr_energy">   -429.81232694 </i>
    <i name="e_wo_entrp">   -429.80169696 </i>
    <i name="e_0_energy">   -429.80701195 </i>
   </energy>
  </scstep>
  <scstep>
   <time name="diag">    0.51    0.52</time>
   <time name="diis">    1.32    1.33</time>
   <time name="orth">    0.08    0.08</time>
   <time name="total">    1.92    1.93</time>
   <energy>
    <i name="e_fr_energy">   -431.16893434 </i>
    <i name="e_wo_entrp">   -431.15908147 </i>
    <i name="e_0_energy">   -431.16400791 </i>
   </energy>
  </scstep>
  <scstep>
   <time name="diag">    0.50    0.50</time>
   <time name="diis">    1.47    1.48</time>
   <time name="orth">    0.09    0.09</time>
   <time name="total">    2.06    2.07</time>
   <energy>
    <i name="e_fr_energy">   -431.29791411 </i>
    <i name="e_wo_entrp">   -431.28808747 </i>
    <i name="e_0_energy">   -431.29300079 </i>
   </energy>
  </scstep>
  <scstep>
   <time name="diag">    0.50    0.51</time>
   <time name="diis">    1.29    1.30</time>
   <time name="orth">    0.08    0.08</time>
   <time name="total">    1.88    1.89</time>
   <energy>
    <i name="e_fr_energy">   -431.30178232 </i>
    <i name="e_wo_entrp">   -431.29192195 </i>
    <i name="e_0_energy">   -431.29685213 </i>
   </energy>
  </scstep>
  <scstep>
   <time name="diag">    0.50    0.50</time>
   <time name="diis">    1.06    1.06</time>
   <time name="orth">    0.08    0.08</time>
   <time name="total">    1.76    1.77</time>
   <energy>
    <i name="e_fr_energy">   -431.30229943 </i>
    <i name="e_wo_entrp">   -431.29243739 </i>
    <i name="e_0_energy">   -431.29736841 </i>
   </energy>
  </scstep>
  <scstep>
   <time name="diag">    0.51    0.51</time>
   <time name="diis">    1.20    1.20</time>
   <time name="orth">    0.08    0.09</time>
   <time name="total">    1.95    1.95</time>
   <energy>
    <i name="e_fr_energy">   -340.77947462 </i>
    <i name="e_wo_entrp">   -340.77458295 </i>
    <i name="e_0_energy">   -340.77702878 </i>
   </energy>
  </scstep>
  <scstep>
   <time name="diag">    0.50    0.50</time>
   <time name="diis">    1.21    1.21</time>
   <time name="orth">    0.08    0.08</time>
   <time name="total">    1.95    1.96</time>
   <energy>
    <i name="e_fr_energy">   -435.12845137 </i>
    <i name="e_wo_entrp">   -435.11716046 </i>
    <i name="e_0_energy">   -435.12280591 </i>
   </energy>
  </scstep>
  <scstep>
   <time name="diag">    0.50    0.50</time>
   <time name="diis">    1.19    1.19</time>
   <time name="orth">    0.08    0.08</time>
   <time name="total">    1.93    1.93</time>
   <energy>
    <i name="e_fr_energy">   -318.20103078 </i>
    <i name="e_wo_entrp">   -318.19357447 </i>
    <i name="e_0_energy">   -318.19730263 </i>
   </energy>
  </scstep>
  <scstep>
   <time name="diag">    0.50    0.51</time>
   <time name="diis">    1.19    1.20</time>
   <time name="orth">    0.09    0.09</time>
   <time name="total">    1.93    1.94</time>
   <energy>
    <i name="e_fr_energy">   -287.51565984 </i>
    <i name="e_wo_entrp">   -287.51183115 </i>
    <i name="e_0_energy">   -287.51374550 </i>
   </energy>
  </scstep>
  <scstep>
   <time name="diag">    0.51    0.51</time>
   <time name="diis">    1.19    1.20</time>
   <time name="orth">    0.08    0.09</time>
   <time name="total">    1.94    1.95</time>
   <energy>
    <i name="e_fr_energy">   -275.63592486 </i>
    <i name="e_wo_entrp">   -275.62430700 </i>
    <i name="e_0_energy">   -275.63011593 </i>
   </energy>
  </scstep>
  <scstep>
   <time name="diag">    0.50    0.51</time>
   <time name="diis">    1.20    1.20</time>
   <time name="orth">    0.08    0.08</time>
   <time name="total">    1.98    2.00</time>
   <energy>
    <i name="e_fr_energy">   -273.67896604 </i>
    <i name="e_wo_entrp">   -273.66676079 </i>
    <i name="e_0_energy">   -273.67286342 </i>
   </energy>
  </scstep>
  <scstep>
   <time name="diag">    0.50    0.50</time>
   <time name="diis">    1.20    1.21</time>
   <time name="orth">    0.09    0.09</time>
   <time name="total">    1.95    1.96</time>
   <energy>
    <i name="e_fr_energy">   -273.29685547 </i>
    <i name="e_wo_entrp">   -273.28280264 </i>
    <i name="e_0_energy">   -273.28982906 </i>
   </energy>
  </scstep>
  <scstep>
   <time name="diag">    0.50    0.51</time>
   <time name="diis">    1.20    1.20</time>
   <time name="orth">    0.08    0.08</time>
   <time name="total">    1.94    1.94</time>
   <energy>
    <i name="e_fr_energy">   -280.47856802 </i>
    <i name="e_wo_entrp">   -280.46483216 </i>
    <i name="e_0_energy">   -280.47170009 </i>
   </energy>
  </scstep>
  <scstep>
   <time name="diag">    0.50    0.50</time>
   <time name="diis">    1.19    1.20</time>
   <time name="orth">    0.08    0.08</time>
   <time name="total">    1.93    1.94</time>
   <energy>
    <i name="e_fr_energy">   -317.43863026 </i>
    <i name="e_wo_entrp">   -317.43214884 </i>
    <i name="e_0_energy">   -317.43538955 </i>
   </energy>
  </scstep>
  <scstep>
   <time name="diag">    0.50    0.51</time>
   <time name="diis">    1.21    1.22</time>
   <time name="orth">    0.09    0.09</time>
   <time name="total">    1.96    1.96</time>
   <energy>
    <i name="e_fr_energy">   -337.81386514 </i>
    <i name="e_wo_entrp">   -337.80798653 </i>
    <i name="e_0_energy">   -337.81092583 </i>
   </energy>
  </scstep>
  <scstep>
   <time name="diag">    0.50    0.51</time>
   <time name="diis">    1.19    1.20</time>
   <time name="orth">    0.09    0.09</time>
   <time name="total">    1.94    1.94</time>
   <energy>
    <i name="e_fr_energy">   -386.06191048 </i>
    <i name="e_wo_entrp">   -386.04546875 </i>
    <i name="e_0_energy">   -386.05368962 </i>
   </energy>
  </scstep>
  <scstep>
   <time name="diag">    0.50    0.50</time>
   <time name="diis">    1.19    1.20</time>
   <time name="orth">    0.08    0.08</time>
   <time name="total">    1.93    1.94</time>
   <energy>
    <i name="e_fr_energy">   -411.59772469 </i>
    <i name="e_wo_entrp">   -411.58961522 </i>
    <i name="e_0_energy">   -411.59366996 </i>
   </energy>
  </scstep>
  <scstep>
   <time name="diag">    0.50    0.50</time>
   <time name="diis">    1.19    1.20</time>
   <time name="orth">    0.08    0.08</time>
   <time name="total">    1.93    1.94</time>
   <energy>
    <i name="e_fr_energy">   -416.27067575 </i>
    <i name="e_wo_entrp">   -416.26170882 </i>
    <i name="e_0_energy">   -416.26619229 </i>
   </energy>
  </scstep>
  <scstep>
   <time name="diag">    0.50    0.50</time>
   <time name="diis">    1.20    1.20</time>
   <time name="orth">    0.09    0.09</time>
   <time name="total">    1.94    1.94</time>
   <energy>
    <i name="e_fr_energy">   -416.71773014 </i>
    <i name="e_wo_entrp">   -416.70947505 </i>
    <i name="e_0_energy">   -416.71360260 </i>
   </energy>
  </scstep>
  <scstep>
   <time name="diag">    0.50    0.50</time>
   <time name="diis">    1.20    1.21</time>
   <time name="orth">    0.09    0.09</time>
   <time name="total">    1.94    1.95</time>
   <energy>
    <i name="e_fr_energy">   -415.65929601 </i>
    <i name="e_wo_entrp">   -415.65406057 </i>
    <i name="e_0_energy">   -415.65667829 </i>
   </energy>
  </scstep>
  <scstep>
   <time name="diag">    0.51    0.51</time>
   <time name="diis">    1.20    1.20</time>
   <time name="orth">    0.08    0.08</time>
   <time name="total">    1.94    1.95</time>
   <energy>
    <i name="e_fr_energy">   -416.12577489 </i>
    <i name="e_wo_entrp">   -416.11970370 </i>
    <i name="e_0_energy">   -416.12273930 </i>
   </energy>
  </scstep>
  <scstep>
   <time name="diag">    0.50    0.50</time>
   <time name="diis">    1.20    1.20</time>
   <time name="orth">    0.09    0.09</time>
   <time name="total">    1.94    1.94</time>
   <energy>
    <i name="e_fr_energy">   -417.05664971 </i>
    <i name="e_wo_entrp">   -417.05190784 </i>
    <i name="e_0_energy">   -417.05427878 </i>
   </energy>
  </scstep>
  <scstep>
   <time name="diag">    0.50    0.50</time>
   <time name="diis">    1.20    1.20</time>
   <time name="orth">    0.08    0.08</time>
   <time name="total">    1.94    1.95</time>
   <energy>
    <i name="e_fr_energy">   -418.46388132 </i>
    <i name="e_wo_entrp">   -418.45857193 </i>
    <i name="e_0_energy">   -418.46122663 </i>
   </energy>
  </scstep>
  <scstep>
   <time name="diag">    0.50    0.50</time>
   <time name="diis">    1.19    1.20</time>
   <time name="orth">    0.08    0.08</time>
   <time name="total">    1.93    1.94</time>
   <energy>
    <i name="e_fr_energy">   -420.29567267 </i>
    <i name="e_wo_entrp">   -420.29276128 </i>
    <i name="e_0_energy">   -420.29421697 </i>
   </energy>
  </scstep>
  <scstep>
   <time name="diag">    0.50    0.50</time>
   <time name="diis">    1.20    1.21</time>
   <time name="orth">    0.08    0.09</time>
   <time name="total">    1.94    1.95</time>
   <energy>
    <i name="e_fr_energy">   -421.04433073 </i>
    <i name="e_wo_entrp">   -421.03819643 </i>
    <i name="e_0_energy">   -421.04126358 </i>
   </energy>
  </scstep>
  <scstep>
   <time name="diag">    0.51    0.51</time>
   <time name="diis">    1.19    1.20</time>
   <time name="orth">    0.08    0.08</time>
   <time name="total">    1.94    1.94</time>
   <energy>
    <i name="e_fr_energy">   -421.22518613 </i>
    <i name="e_wo_entrp">   -421.20997501 </i>
    <i name="e_0_energy">   -421.21758057 </i>
   </energy>
  </scstep>
  <scstep>
   <time name="diag">    0.50    0.50</time>
   <time name="diis">    1.28    1.30</time>
   <time name="orth">    0.09    0.09</time>
   <time name="total">    2.02    2.05</time>
   <energy>
    <i name="e_fr_energy">   -420.75839393 </i>
    <i name="e_wo_entrp">   -420.74895914 </i>
    <i name="e_0_energy">   -420.75367654 </i>
   </energy>
  </scstep>
  <scstep>
   <time name="diag">    0.50    0.50</time>
   <time name="diis">    1.20    1.20</time>
   <time name="orth">    0.08    0.08</time>
   <time name="total">    1.94    1.95</time>
   <energy>
    <i name="e_fr_energy">   -421.79175140 </i>
    <i name="e_wo_entrp">   -421.78549725 </i>
    <i name="e_0_energy">   -421.78862433 </i>
   </energy>
  </scstep>
  <scstep>
   <time name="diag">    0.50    0.50</time>
   <time name="diis">    1.20    1.20</time>
   <time name="orth">    0.09    0.09</time>
   <time name="total">    1.94    1.95</time>
   <energy>
    <i name="e_fr_energy">   -422.38532777 </i>
    <i name="e_wo_entrp">   -422.38039882 </i>
    <i name="e_0_energy">   -422.38286330 </i>
   </energy>
  </scstep>
  <scstep>
   <time name="diag">    0.50    0.50</time>
   <time name="diis">    1.22    1.23</time>
   <time name="orth">    0.09    0.09</time>
   <time name="total">    1.96    1.97</time>
   <energy>
    <i name="e_fr_energy">   -422.60462343 </i>
    <i name="e_wo_entrp">   -422.60347717 </i>
    <i name="e_0_energy">   -422.60405030 </i>
   </energy>
  </scstep>
  <scstep>
   <time name="diag">    0.50    0.50</time>
   <time name="diis">    1.20    1.21</time>
   <time name="orth">    0.08    0.08</time>
   <time name="total">    1.94    1.95</time>
   <energy>
    <i name="e_fr_energy">   -422.74305076 </i>
    <i name="e_wo_entrp">   -422.74186899 </i>
    <i name="e_0_energy">   -422.74245987 </i>
   </energy>
  </scstep>
  <scstep>
   <time name="diag">    0.50    0.50</time>
   <time name="diis">    1.20    1.20</time>
   <time name="orth">    0.09    0.09</time>
   <time name="total">    1.94    1.94</time>
   <energy>
    <i name="e_fr_energy">   -422.79556164 </i>
    <i name="e_wo_entrp">   -422.79440985 </i>
    <i name="e_0_energy">   -422.79498575 </i>
   </energy>
  </scstep>
  <scstep>
   <time name="diag">    0.51    0.51</time>
   <time name="diis">    1.16    1.16</time>
   <time name="orth">    0.08    0.08</time>
   <time name="total">    1.90    1.91</time>
   <energy>
    <i name="e_fr_energy">   -422.81564870 </i>
    <i name="e_wo_entrp">   -422.81453445 </i>
    <i name="e_0_energy">   -422.81509157 </i>
   </energy>
  </scstep>
  <scstep>
   <time name="diag">    0.50    0.50</time>
   <time name="diis">    1.06    1.07</time>
   <time name="orth">    0.08    0.08</time>
   <time name="total">    1.81    1.81</time>
   <energy>
    <i name="e_fr_energy">   -422.81657510 </i>
    <i name="e_wo_entrp">   -422.81545306 </i>
    <i name="e_0_energy">   -422.81601408 </i>
   </energy>
  </scstep>
  <scstep>
   <time name="diag">    0.50    0.51</time>
   <time name="diis">    0.96    0.97</time>
   <time name="orth">    0.09    0.09</time>
   <time name="total">    1.59    1.60</time>
   <energy>
    <i name="alphaZ">    372.54520999 </i>
    <i name="ewald">  37974.65546195 </i>
    <i name="hartreedc"> -46256.94237110 </i>
    <i name="XCdc">    719.63507773 </i>
    <i name="pawpsdc">  20443.64942096 </i>
    <i name="pawaedc"> -20481.08950058 </i>
    <i name="eentropy">     -0.00125740 </i>
    <i name="bandstr">  -1398.98079262 </i>
    <i name="atom">   8203.71208324 </i>
    <i name="e_fr_energy">   -422.81666783 </i>
    <i name="e_wo_entrp">   -422.81541042 </i>
    <i name="e_0_energy">   -422.81603913 </i>
   </energy>
  </scstep>
  <structure>
   <crystal>
    <varray name="basis" >
     <v>       4.26620007       0.00000000       0.00000000 </v>
     <v>       0.00000000      39.40950012       0.00000000 </v>
     <v>      -1.42206471       0.00000000       3.18109970 </v>
    </varray>
    <i name="volume">    534.83451311 </i>
    <varray name="rec_basis" >
     <v>       0.23440063       0.00000000       0.10478542 </v>
     <v>       0.00000000       0.02537459       0.00000000 </v>
     <v>       0.00000000       0.00000000       0.31435670 </v>
    </varray>
   </crystal>
   <varray name="positions" >
    <v>       0.00000000       0.00000000       0.00000000 </v>
    <v>       0.33300000       0.00000000       0.00000000 </v>
    <v>       0.50000000       0.03123100       0.00000000 </v>
    <v>       0.83300000       0.03123100       0.00000000 </v>
    <v>       0.00000000       0.06250200       0.00000000 </v>
    <v>       0.33300000       0.06250200       0.00000000 </v>
    <v>       0.50000000       0.09378200       0.00000000 </v>
    <v>       0.83300000       0.09378200       0.00000000 </v>
    <v>       0.00000000       0.12500601       0.00000000 </v>
    <v>       0.33300000       0.12500601       0.00000000 </v>
    <v>       0.50000000       0.15626900       0.00000000 </v>
    <v>       0.83300000       0.15626900       0.00000000 </v>
    <v>       0.00000000       0.18756100       0.00000000 </v>
    <v>       0.33300000       0.18756100       0.00000000 </v>
    <v>       0.50000000       0.21876700       0.00000000 </v>
    <v>       0.83300000       0.21876700       0.00000000 </v>
    <v>       0.00000000       0.25000900       0.00000000 </v>
    <v>       0.33300000       0.25000900       0.00000000 </v>
    <v>       0.50000000       0.28134501       0.00000000 </v>
    <v>       0.83300000       0.28134501       0.00000000 </v>
    <v>       0.00000000       0.31249699       0.00000000 </v>
    <v>       0.33300000       0.31249699       0.00000000 </v>
    <v>       0.50000000       0.34355301       0.00000000 </v>
    <v>       0.83300000       0.34355301       0.00000000 </v>
    <v>       0.00000000       0.68767798       0.00000000 </v>
    <v>       0.33300000       0.68767798       0.00000000 </v>
    <v>       0.50000000       0.71873301       0.00000000 </v>
    <v>       0.83300000       0.71873301       0.00000000 </v>
    <v>       0.00000000       0.74988502       0.00000000 </v>
    <v>       0.33300000       0.74988502       0.00000000 </v>
    <v>       0.50000000       0.78122199       0.00000000 </v>
    <v>       0.83300000       0.78122199       0.00000000 </v>
    <v>       0.00000000       0.81246299       0.00000000 </v>
    <v>       0.33300000       0.81246299       0.00000000 </v>
    <v>       0.50000000       0.84366900       0.00000000 </v>
    <v>       0.83300000       0.84366900       0.00000000 </v>
    <v>       0.00000000       0.87496102       0.00000000 </v>
    <v>       0.33300000       0.87496102       0.00000000 </v>
    <v>       0.50000000       0.90622401       0.00000000 </v>
    <v>       0.83300000       0.90622401       0.00000000 </v>
    <v>       0.00000000       0.93744898       0.00000000 </v>
    <v>       0.33300000       0.93744898       0.00000000 </v>
    <v>       0.50000000       0.96872902       0.00000000 </v>
    <v>       0.83300000       0.96872902       0.00000000 </v>
    <v>       0.98762596       0.37432301       0.00000000 </v>
    <v>       0.34584999       0.37432301       0.00000000 </v>
    <v>       0.48762602       0.65690798       0.00000000 </v>
    <v>       0.84585100       0.65690798       0.00000000 </v>
   </varray>
  </structure>
  <varray name="forces" >
   <v>      -0.04928551      -0.11499953       0.00098551 </v>
   <v>       0.04955393      -0.11412246      -0.00107641 </v>
   <v>      -0.04928551       0.11499953       0.00098551 </v>
   <v>       0.04955393       0.11412246      -0.00107641 </v>
   <v>      -0.18504708       0.00549974      -0.00193148 </v>
   <v>       0.18506375       0.00567248       0.00200696 </v>
   <v>      -0.06182298      -0.12009260      -0.00965350 </v>
   <v>       0.06142540      -0.12057646       0.00994663 </v>
   <v>      -0.06591481       0.08995015       0.01064958 </v>
   <v>       0.06592174       0.08953973      -0.01053691 </v>
   <v>      -0.13180272       0.02310116       0.00044808 </v>
   <v>       0.13141178       0.02210016      -0.00148247 </v>
   <v>      -0.08630469      -0.07377359      -0.02215239 </v>
   <v>       0.08708315      -0.07434429       0.02240848 </v>
   <v>      -0.12822151       0.04788331       0.01563559 </v>
   <v>       0.12859943       0.04743948      -0.01525628 </v>
   <v>       0.00671565       0.02462023       0.00754251 </v>
   <v>      -0.00677747       0.02442608      -0.00727366 </v>
   <v>      -0.07217796      -0.00353861      -0.04354587 </v>
   <v>       0.07347503      -0.00480247       0.04376926 </v>
   <v>      -0.62706816       0.01037891       0.02542185 </v>
   <v>       0.62476733       0.00996135      -0.02527123 </v>
   <v>       0.20495608      -0.07714512      -0.04018608 </v>
   <v>      -0.17371411      -0.07546622       0.03990658 </v>
   <v>       0.20495608       0.07714512      -0.04018608 </v>
   <v>      -0.17371411       0.07546622       0.03990658 </v>
   <v>      -0.62706816      -0.01037891       0.02542185 </v>
   <v>       0.62476733      -0.00996135      -0.02527123 </v>
   <v>      -0.07217796       0.00353861      -0.04354587 </v>
   <v>       0.07347503       0.00480247       0.04376926 </v>
   <v>       0.00671565      -0.02462023       0.00754251 </v>
   <v>      -0.00677747      -0.02442608      -0.00727366 </v>
   <v>      -0.12822151      -0.04788331       0.01563559 </v>
   <v>       0.12859943      -0.04743948      -0.01525628 </v>
   <v>      -0.08630469       0.07377359      -0.02215239 </v>
   <v>       0.08708315       0.07434429       0.02240848 </v>
   <v>      -0.13180272      -0.02310116       0.00044808 </v>
   <v>       0.13141178      -0.02210016      -0.00148247 </v>
   <v>      -0.06591481      -0.08995015       0.01064958 </v>
   <v>       0.06592174      -0.08953973      -0.01053691 </v>
   <v>      -0.06182298       0.12009260      -0.00965350 </v>
   <v>       0.06142540       0.12057646       0.00994663 </v>
   <v>      -0.18504708      -0.00549974      -0.00193148 </v>
   <v>       0.18506375      -0.00567248       0.00200696 </v>
   <v>      -0.02174164       0.00533785      -0.06366034 </v>
   <v>      -0.00909463       0.00662363       0.06330558 </v>
   <v>      -0.02174164      -0.00533785      -0.06366034 </v>
   <v>      -0.00909463      -0.00662363       0.06330558 </v>
  </varray>
  <energy>
   <i name="e_fr_energy">   -428.83800521 </i>
   <i name="e_wo_entrp">   -428.83737650 </i>
   <i name="e_0_energy">     -0.00125740 </i>
  </energy>
  <time name="totalsc">   76.78   77.12</time>
 </calculation>
 <calculation>
  <scstep>
   <time name="diag">    0.51    0.51</time>
   <time name="diis">    1.18    1.19</time>
   <time name="orth">    0.08    0.09</time>
   <time name="total">    1.93    1.95</time>
   <energy>
    <i name="alphaZ">    372.54520999 </i>
    <i name="ewald">  37980.50272236 </i>
    <i name="hartreedc"> -46262.30121840 </i>
    <i name="XCdc">    719.63788910 </i>
    <i name="pawpsdc">  20444.29072191 </i>
    <i name="pawaedc"> -20481.72992879 </i>
    <i name="eentropy">     -0.00867952 </i>
    <i name="bandstr">  -1399.39932076 </i>
    <i name="atom">   8203.71208324 </i>
    <i name="e_fr_energy">   -422.75052088 </i>
    <i name="e_wo_entrp">   -422.74184136 </i>
    <i name="e_0_energy">   -422.74618112 </i>
   </energy>
  </scstep>
  <scstep>
   <time name="diag">    0.50    0.51</time>
   <time name="diis">    1.19    1.20</time>
   <time name="orth">    0.09    0.09</time>
   <time name="total">    1.94    1.95</time>
   <energy>
    <i name="e_fr_energy">   -422.74026817 </i>
    <i name="e_wo_entrp">   -422.73565537 </i>
    <i name="e_0_energy">   -422.73796177 </i>
   </energy>
  </scstep>
  <scstep>
   <time name="diag">    0.51    0.51</time>
   <time name="diis">    1.20    1.20</time>
   <time name="orth">    0.09    0.09</time>
   <time name="total">    1.94    1.95</time>
   <energy>
    <i name="e_fr_energy">   -422.72933819 </i>
    <i name="e_wo_entrp">   -422.72146536 </i>
    <i name="e_0_energy">   -422.72540177 </i>
   </energy>
  </scstep>
  <scstep>
   <time name="diag">    0.50    0.51</time>
   <time name="diis">    1.20    1.21</time>
   <time name="orth">    0.09    0.09</time>
   <time name="total">    1.94    1.95</time>
   <energy>
    <i name="e_fr_energy">   -422.72094919 </i>
    <i name="e_wo_entrp">   -422.71625624 </i>
    <i name="e_0_energy">   -422.71860272 </i>
   </energy>
  </scstep>
  <scstep>
   <time name="diag">    0.51    0.51</time>
   <time name="diis">    1.19    1.19</time>
   <time name="orth">    0.09    0.09</time>
   <time name="total">    1.94    1.94</time>
   <energy>
    <i name="e_fr_energy">   -422.71477424 </i>
    <i name="e_wo_entrp">   -422.71002468 </i>
    <i name="e_0_energy">   -422.71239946 </i>
   </energy>
  </scstep>
  <scstep>
   <time name="diag">    0.51    0.51</time>
   <time name="diis">    0.95    0.95</time>
   <time name="orth">    0.09    0.09</time>
   <time name="total">    1.69    1.70</time>
   <energy>
    <i name="e_fr_energy">   -422.71378462 </i>
    <i name="e_wo_entrp">   -422.70867491 </i>
    <i name="e_0_energy">   -422.71122976 </i>
   </energy>
  </scstep>
  <scstep>
   <time name="diag">    0.51    0.51</time>
   <time name="diis">    1.05    1.06</time>
   <time name="orth">    0.09    0.09</time>
   <time name="total">    1.79    1.80</time>
   <energy>
    <i name="e_fr_energy">   -422.71367225 </i>
    <i name="e_wo_entrp">   -422.70613596 </i>
    <i name="e_0_energy">   -422.70990410 </i>
   </energy>
  </scstep>
  <scstep>
   <time name="diag">    0.51    0.51</time>
   <time name="diis">    0.85    0.85</time>
   <time name="orth">    0.09    0.09</time>
   <time name="total">    1.60    1.61</time>
   <energy>
    <i name="e_fr_energy">   -422.71346177 </i>
    <i name="e_wo_entrp">   -422.70783398 </i>
    <i name="e_0_energy">   -422.71064788 </i>
   </energy>
  </scstep>
  <scstep>
   <time name="diag">    0.51    0.51</time>
   <time name="diis">    0.78    0.78</time>
   <time name="orth">    0.09    0.09</time>
   <time name="total">    1.41    1.42</time>
   <energy>
    <i name="alphaZ">    372.54520999 </i>
    <i name="ewald">  37980.50272236 </i>
    <i name="hartreedc"> -46259.75709265 </i>
    <i name="XCdc">    719.66963483 </i>
    <i name="pawpsdc">  20464.99625499 </i>
    <i name="pawaedc"> -20502.42838484 </i>
    <i name="eentropy">     -0.00611279 </i>
    <i name="bandstr">  -1401.94768012 </i>
    <i name="atom">   8203.71208324 </i>
    <i name="e_fr_energy">   -422.71336498 </i>
    <i name="e_wo_entrp">   -422.70725219 </i>
    <i name="e_0_energy">   -422.71030859 </i>
   </energy>
  </scstep>
  <structure>
   <crystal>
    <varray name="basis" >
     <v>       4.26620007       0.00000000       0.00000000 </v>
     <v>       0.00000000      39.40950012       0.00000000 </v>
     <v>      -1.42206471       0.00000000       3.18109970 </v>
    </varray>
    <i name="volume">    534.83451311 </i>
    <varray name="rec_basis" >
     <v>       0.23440063       0.00000000       0.10478542 </v>
     <v>       0.00000000       0.02537459       0.00000000 </v>
     <v>       0.00000000       0.00000000       0.31435670 </v>
    </varray>
   </crystal>
   <varray name="positions" >
    <v>      -0.00055234      -0.00014078       0.00000000 </v>
    <v>       0.33355492      -0.00013970       0.00000000 </v>
    <v>       0.49944766       0.03137177       0.00000000 </v>
    <v>       0.83355492       0.03137070       0.00000000 </v>
    <v>      -0.00210230       0.06250873       0.00000000 </v>
    <v>       0.33510287       0.06250894       0.00000000 </v>
    <v>       0.49925210       0.09363499       0.00000000 </v>
    <v>       0.83374489       0.09363440       0.00000000 </v>
    <v>      -0.00069154       0.12511612       0.00000000 </v>
    <v>       0.33369218       0.12511561       0.00000000 </v>
    <v>       0.49851183       0.15629728       0.00000000 </v>
    <v>       0.83447852       0.15629605       0.00000000 </v>
    <v>      -0.00108793       0.18747070       0.00000000 </v>
    <v>       0.33409802       0.18747000       0.00000000 </v>
    <v>       0.49862910       0.21882562       0.00000000 </v>
    <v>       0.83437709       0.21882507       0.00000000 </v>
    <v>       0.00011407       0.25003914       0.00000000 </v>
    <v>       0.33288659       0.25003890       0.00000000 </v>
    <v>       0.49896367       0.28134068       0.00000000 </v>
    <v>       0.83405212       0.28133913       0.00000000 </v>
    <v>      -0.00696244       0.31250970       0.00000000 </v>
    <v>       0.33993719       0.31250918       0.00000000 </v>
    <v>       0.50211452       0.34345857       0.00000000 </v>
    <v>       0.83123735       0.34346063       0.00000000 </v>
    <v>       0.00211452       0.68777242       0.00000000 </v>
    <v>       0.33123735       0.68777036       0.00000000 </v>
    <v>       0.49303756       0.71872031       0.00000000 </v>
    <v>       0.83993719       0.71872082       0.00000000 </v>
    <v>      -0.00103633       0.74988935       0.00000000 </v>
    <v>       0.33405212       0.74989090       0.00000000 </v>
    <v>       0.50011407       0.78119185       0.00000000 </v>
    <v>       0.83288659       0.78119209       0.00000000 </v>
    <v>      -0.00137090       0.81240437       0.00000000 </v>
    <v>       0.33437709       0.81240491       0.00000000 </v>
    <v>       0.49891207       0.84375931       0.00000000 </v>
    <v>       0.83409802       0.84376000       0.00000000 </v>
    <v>      -0.00148817       0.87493274       0.00000000 </v>
    <v>       0.33447852       0.87493397       0.00000000 </v>
    <v>       0.49930846       0.90611390       0.00000000 </v>
    <v>       0.83369218       0.90611440       0.00000000 </v>
    <v>      -0.00074790       0.93759599       0.00000000 </v>
    <v>       0.33374489       0.93759658       0.00000000 </v>
    <v>       0.49789770       0.96872229       0.00000000 </v>
    <v>       0.83510287       0.96872208       0.00000000 </v>
    <v>       0.98705829       0.37432954       0.00000000 </v>
    <v>       0.34606717       0.37433112       0.00000000 </v>
    <v>       0.48705835       0.65690144       0.00000000 </v>
    <v>       0.84606818       0.65689987       0.00000000 </v>
   </varray>
  </structure>
  <varray name="forces" >
   <v>       0.23743961       0.35085555      -0.01072862 </v>
   <v>      -0.23735083       0.34872915       0.01060309 </v>
   <v>       0.23743961      -0.35085555      -0.01072862 </v>
   <v>      -0.23735083      -0.34872915       0.01060309 </v>
   <v>       0.69748721      -0.03888841      -0.00148530 </v>
   <v>      -0.69691615      -0.03781062       0.00075812 </v>
   <v>       0.31267340       0.35713107      -0.01850198 </v>
   <v>      -0.31320382       0.35906426       0.01861014 </v>
   <v>       0.22853072      -0.25715866      -0.00215780 </v>
   <v>      -0.22949731      -0.25398124       0.00205867 </v>
   <v>       0.54143550      -0.08846334      -0.00013819 </v>
   <v>      -0.53928279      -0.08373327      -0.00033274 </v>
   <v>       0.42448960       0.24038112      -0.02904258 </v>
   <v>      -0.42594991       0.24414012       0.02880261 </v>
   <v>       0.33510807      -0.05427847       0.00332455 </v>
   <v>      -0.33546984      -0.05212923      -0.00367208 </v>
   <v>       0.18832514      -0.08614919       0.00572828 </v>
   <v>      -0.18571517      -0.08509526      -0.00544908 </v>
   <v>       0.59431587      -0.14401793      -0.04346998 </v>
   <v>      -0.60040936      -0.13879048       0.04395392 </v>
   <v>       1.60089653       0.03901414      -0.00073758 </v>
   <v>      -1.56859017       0.05344203       0.00164233 </v>
   <v>      -0.42330426       0.29490527      -0.04055669 </v>
   <v>       0.37862721       0.30313880       0.04085685 </v>
   <v>      -0.42330426      -0.29490527      -0.04055669 </v>
   <v>       0.37862721      -0.30313880       0.04085685 </v>
   <v>       1.60089653      -0.03901414      -0.00073758 </v>
   <v>      -1.56859017      -0.05344203       0.00164233 </v>
   <v>       0.59431587       0.14401793      -0.04346998 </v>
   <v>      -0.60040936       0.13879048       0.04395392 </v>
   <v>       0.18832514       0.08614919       0.00572828 </v>
   <v>      -0.18571517       0.08509526      -0.00544908 </v>
   <v>       0.33510807       0.05427847       0.00332455 </v>
   <v>      -0.33546984       0.05212923      -0.00367208 </v>
   <v>       0.42448960      -0.24038112      -0.02904258 </v>
   <v>      -0.42594991      -0.24414012       0.02880261 </v>
   <v>       0.54143550       0.08846334      -0.00013819 </v>
   <v>      -0.53928279       0.08373327      -0.00033274 </v>
   <v>       0.22853072       0.25715866      -0.00215780 </v>
   <v>      -0.22949731       0.25398124       0.00205867 </v>
   <v>       0.31267340      -0.35713107      -0.01850198 </v>
   <v>      -0.31320382      -0.35906426       0.01861014 </v>
   <v>       0.69748721       0.03888841      -0.00148530 </v>
   <v>      -0.69691615       0.03781062       0.00075812 </v>
   <v>      -0.02479113      -0.16573716      -0.06041064 </v>
   <v>       0.04115187      -0.16836201       0.06034470 </v>
   <v>      -0.02479113       0.16573716      -0.06041064 </v>
   <v>       0.04115187       0.16836201       0.06034470 </v>
  </varray>
  <energy>
   <i name="e_fr_energy">   -428.73451663 </i>
   <i name="e_wo_entrp">   -428.73146024 </i>
   <i name="e_0_energy">     -0.00611279 </i>
  </energy>
  <time name="totalsc">   17.33   17.41</time>
 </calculation>
 <calculation>
  <scstep>
   <time name="diag">    0.50    0.51</time>
   <time name="diis">    1.18    1.19</time>
   <time name="orth">    0.08    0.09</time>
   <time name="total">    1.92    1.94</time>
   <energy>
    <i name="alphaZ">    372.54520999 </i>
    <i name="ewald">  37975.88326445 </i>
    <i name="hartreedc"> -46255.40545178 </i>
    <i name="XCdc">    719.65407235 </i>
    <i name="pawpsdc">  20465.18697686 </i>
    <i name="pawaedc"> -20502.61925645 </i>
    <i name="eentropy">     -0.00178388 </i>
    <i name="bandstr">  -1401.80510088 </i>
    <i name="atom">   8203.71208324 </i>
    <i name="e_fr_energy">   -422.84998608 </i>
    <i name="e_wo_entrp">   -422.84820220 </i>
    <i name="e_0_energy">   -422.84909414 </i>
   </energy>
  </scstep>
  <scstep>
   <time name="diag">    0.50    0.51</time>
   <time name="diis">    1.19    1.20</time>
   <time name="orth">    0.09    0.09</time>
   <time name="total">    1.93    1.95</time>
   <energy>
    <i name="e_fr_energy">   -422.83566852 </i>
    <i name="e_wo_entrp">   -422.83171950 </i>
    <i name="e_0_energy">   -422.83369401 </i>
   </energy>
  </scstep>
  <scstep>
   <time name="diag">    0.51    0.51</time>
   <time name="diis">    1.20    1.21</time>
   <time name="orth">    0.09    0.09</time>
   <time name="total">    1.95    1.95</time>
   <energy>
    <i name="e_fr_energy">   -422.84237109 </i>
    <i name="e_wo_entrp">   -422.84019452 </i>
    <i name="e_0_energy">   -422.84128281 </i>
   </energy>
  </scstep>
  <scstep>
   <time name="diag">    0.51    0.51</time>
   <time name="diis">    1.19    1.19</time>
   <time name="orth">    0.09    0.09</time>
   <time name="total">    1.94    1.94</time>
   <energy>
    <i name="e_fr_energy">   -422.83073889 </i>
    <i name="e_wo_entrp">   -422.82880672 </i>
    <i name="e_0_energy">   -422.82977280 </i>
   </energy>
  </scstep>
  <scstep>
   <time name="diag">    0.50    0.51</time>
   <time name="diis">    1.05    1.05</time>
   <time name="orth">    0.08    0.08</time>
   <time name="total">    1.79    1.80</time>
   <energy>
    <i name="e_fr_energy">   -422.83023101 </i>
    <i name="e_wo_entrp">   -422.82779224 </i>
    <i name="e_0_energy">   -422.82901162 </i>
   </energy>
  </scstep>
  <scstep>
   <time name="diag">    0.51    0.51</time>
   <time name="diis">    0.83    0.83</time>
   <time name="orth">    0.09    0.09</time>
   <time name="total">    1.47    1.47</time>
   <energy>
    <i name="alphaZ">    372.54520999 </i>
    <i name="ewald">  37975.88326445 </i>
    <i name="hartreedc"> -46256.50720569 </i>
    <i name="XCdc">    719.63202629 </i>
    <i name="pawpsdc">  20446.84098342 </i>
    <i name="pawaedc"> -20484.27561450 </i>
    <i name="eentropy">     -0.00281309 </i>
    <i name="bandstr">  -1400.65816207 </i>
    <i name="atom">   8203.71208324 </i>
    <i name="e_fr_energy">   -422.83022794 </i>
    <i name="e_wo_entrp">   -422.82741486 </i>
    <i name="e_0_energy">   -422.82882140 </i>
   </energy>
  </scstep>
  <structure>
   <crystal>
    <varray name="basis" >
     <v>       4.26620007       0.00000000       0.00000000 </v>
     <v>       0.00000000      39.40950012       0.00000000 </v>
     <v>      -1.42206471       0.00000000       3.18109970 </v>
    </varray>
    <i name="volume">    534.83451311 </i>
    <varray name="rec_basis" >
     <v>       0.23440063       0.00000000       0.10478542 </v>
     <v>       0.00000000       0.02537459       0.00000000 </v>
     <v>       0.00000000       0.00000000       0.31435670 </v>
    </varray>
   </crystal>
   <varray name="positions" >
    <v>      -0.00013633      -0.00003475       0.00000000 </v>
    <v>       0.33313697      -0.00003448       0.00000000 </v>
    <v>       0.49986367       0.03126575       0.00000000 </v>
    <v>       0.83313697       0.03126548       0.00000000 </v>
    <v>      -0.00051890       0.06250366       0.00000000 </v>
    <v>       0.33351904       0.06250371       0.00000000 </v>
    <v>       0.49981540       0.09374571       0.00000000 </v>
    <v>       0.83318386       0.09374557       0.00000000 </v>
    <v>      -0.00017069       0.12503318       0.00000000 </v>
    <v>       0.33317085       0.12503306       0.00000000 </v>
    <v>       0.49963268       0.15627598       0.00000000 </v>
    <v>       0.83336494       0.15627568       0.00000000 </v>
    <v>      -0.00026853       0.18753871       0.00000000 </v>
    <v>       0.33327102       0.18753854       0.00000000 </v>
    <v>       0.49966163       0.21878147       0.00000000 </v>
    <v>       0.83333990       0.21878134       0.00000000 </v>
    <v>       0.00002816       0.25001644       0.00000000 </v>
    <v>       0.33297201       0.25001638       0.00000000 </v>
    <v>       0.49974421       0.28134394       0.00000000 </v>
    <v>       0.83325969       0.28134356       0.00000000 </v>
    <v>      -0.00171850       0.31250013       0.00000000 </v>
    <v>       0.33471227       0.31250000       0.00000000 </v>
    <v>       0.50052192       0.34352970       0.00000000 </v>
    <v>       0.83256494       0.34353021       0.00000000 </v>
    <v>       0.00052192       0.68770129       0.00000000 </v>
    <v>       0.33256494       0.68770078       0.00000000 </v>
    <v>       0.49828150       0.71872988       0.00000000 </v>
    <v>       0.83471227       0.71873000       0.00000000 </v>
    <v>      -0.00025579       0.74988609       0.00000000 </v>
    <v>       0.33325969       0.74988647       0.00000000 </v>
    <v>       0.50002816       0.78121455       0.00000000 </v>
    <v>       0.83297201       0.78121461       0.00000000 </v>
    <v>      -0.00033837       0.81244852       0.00000000 </v>
    <v>       0.33333990       0.81244865       0.00000000 </v>
    <v>       0.49973147       0.84369129       0.00000000 </v>
    <v>       0.83327102       0.84369146       0.00000000 </v>
    <v>      -0.00036732       0.87495404       0.00000000 </v>
    <v>       0.33336494       0.87495434       0.00000000 </v>
    <v>       0.49982931       0.90619683       0.00000000 </v>
    <v>       0.83317085       0.90619696       0.00000000 </v>
    <v>      -0.00018460       0.93748526       0.00000000 </v>
    <v>       0.33318386       0.93748541       0.00000000 </v>
    <v>       0.49948110       0.96872736       0.00000000 </v>
    <v>       0.83351904       0.96872731       0.00000000 </v>
    <v>       0.98748584       0.37432462       0.00000000 </v>
    <v>       0.34590360       0.37432501       0.00000000 </v>
    <v>       0.48748590       0.65690636       0.00000000 </v>
    <v>       0.84590461       0.65690597       0.00000000 </v>
   </varray>
  </structure>
  <varray name="forces" >
   <v>       0.03049423      -0.00752736      -0.00054065 </v>
   <v>      -0.03055865      -0.00789979      -0.00001174 </v>
   <v>       0.03049423       0.00752736      -0.00054065 </v>
   <v>      -0.03055865       0.00789979      -0.00001174 </v>
   <v>       0.03583029      -0.00320964      -0.00203411 </v>
   <v>      -0.03566735      -0.00379984       0.00189182 </v>
   <v>       0.03643327      -0.01363880      -0.01055149 </v>
   <v>      -0.03712692      -0.01321544       0.01155742 </v>
   <v>       0.01910997       0.00748260       0.00922059 </v>
   <v>      -0.01901464       0.00817104      -0.01005625 </v>
   <v>       0.03754534      -0.00094105       0.00007207 </v>
   <v>      -0.03819877       0.00187212      -0.00120340 </v>
   <v>       0.04360304      -0.00440677      -0.02335796 </v>
   <v>      -0.04391194      -0.00283121       0.02327192 </v>
   <v>       0.00009753       0.02054090       0.01511952 </v>
   <v>       0.00025822       0.02075539      -0.01471073 </v>
   <v>       0.05917674       0.00103934       0.00807107 </v>
   <v>      -0.05863749       0.00114684      -0.00787323 </v>
   <v>       0.09328878      -0.03497702      -0.04344057 </v>
   <v>      -0.09401839      -0.03440155       0.04368557 </v>
   <v>      -0.02263411       0.02037283       0.02082717 </v>
   <v>       0.02933545       0.02251982      -0.02041547 </v>
   <v>       0.07061575       0.01440994      -0.03807144 </v>
   <v>      -0.05670442       0.01765327       0.03833094 </v>
   <v>       0.07061575      -0.01440994      -0.03807144 </v>
   <v>      -0.05670442      -0.01765327       0.03833094 </v>
   <v>      -0.02263411      -0.02037283       0.02082717 </v>
   <v>       0.02933545      -0.02251982      -0.02041547 </v>
   <v>       0.09328878       0.03497702      -0.04344057 </v>
   <v>      -0.09401839       0.03440155       0.04368557 </v>
   <v>       0.05917674      -0.00103934       0.00807107 </v>
   <v>      -0.05863749      -0.00114684      -0.00787323 </v>
   <v>       0.00009753      -0.02054090       0.01511952 </v>
   <v>       0.00025822      -0.02075539      -0.01471073 </v>
   <v>       0.04360304       0.00440677      -0.02335796 </v>
   <v>      -0.04391194       0.00283121       0.02327192 </v>
   <v>       0.03754534       0.00094105       0.00007207 </v>
   <v>      -0.03819877      -0.00187212      -0.00120340 </v>
   <v>       0.01910997      -0.00748260       0.00922059 </v>
   <v>      -0.01901464      -0.00817104      -0.01005625 </v>
   <v>       0.03643327       0.01363880      -0.01055149 </v>
   <v>      -0.03712692       0.01321544       0.01155742 </v>
   <v>       0.03583029       0.00320964      -0.00203411 </v>
   <v>      -0.03566735       0.00379984       0.00189182 </v>
   <v>      -0.03724191      -0.04673746      -0.06241593 </v>
   <v>       0.01792596      -0.04625300       0.06263486 </v>
   <v>      -0.03724191       0.04673746      -0.06241593 </v>
   <v>       0.01792596       0.04625300       0.06263486 </v>
  </varray>
  <energy>
   <i name="e_fr_energy">   -428.85149846 </i>
   <i name="e_wo_entrp">   -428.85009192 </i>
   <i name="e_0_energy">     -0.00281309 </i>
  </energy>
  <time name="totalsc">   12.15   12.23</time>
 </calculation>
 <calculation>
  <scstep>
   <time name="diag">    0.50    0.51</time>
   <time name="diis">    1.19    1.20</time>
   <time name="orth">    0.09    0.09</time>
   <time name="total">    1.93    1.95</time>
   <energy>
    <i name="alphaZ">    372.54520999 </i>
    <i name="ewald">  37986.11763600 </i>
    <i name="hartreedc"> -46265.97576121 </i>
    <i name="XCdc">    719.64939464 </i>
    <i name="pawpsdc">  20446.74543820 </i>
    <i name="pawaedc"> -20484.18210092 </i>
    <i name="eentropy">     -0.00500621 </i>
    <i name="bandstr">  -1401.43598687 </i>
    <i name="atom">   8203.71208324 </i>
    <i name="e_fr_energy">   -422.82909314 </i>
    <i name="e_wo_entrp">   -422.82408693 </i>
    <i name="e_0_energy">   -422.82659004 </i>
   </energy>
  </scstep>
  <scstep>
   <time name="diag">    0.51    0.51</time>
   <time name="diis">    1.19    1.19</time>
   <time name="orth">    0.09    0.09</time>
   <time name="total">    1.94    1.94</time>
   <energy>
    <i name="e_fr_energy">   -422.83125213 </i>
    <i name="e_wo_entrp">   -422.82993801 </i>
    <i name="e_0_energy">   -422.83059507 </i>
   </energy>
  </scstep>
  <scstep>
   <time name="diag">    0.51    0.51</time>
   <time name="diis">    1.09    1.09</time>
   <time name="orth">    0.09    0.09</time>
   <time name="total">    1.84    1.84</time>
   <energy>
    <i name="e_fr_energy">   -422.82799381 </i>
    <i name="e_wo_entrp">   -422.82430915 </i>
    <i name="e_0_energy">   -422.82615148 </i>
   </energy>
  </scstep>
  <scstep>
   <time name="diag">    0.51    0.51</time>
   <time name="diis">    0.94    0.95</time>
   <time name="orth">    0.09    0.09</time>
   <time name="total">    1.58    1.58</time>
   <energy>
    <i name="alphaZ">    372.54520999 </i>
    <i name="ewald">  37986.11763600 </i>
    <i name="hartreedc"> -46264.68617574 </i>
    <i name="XCdc">    719.65724000 </i>
    <i name="pawpsdc">  20451.49449949 </i>
    <i name="pawaedc"> -20488.93021332 </i>
    <i name="eentropy">     -0.00255459 </i>
    <i name="bandstr">  -1402.73564825 </i>
    <i name="atom">   8203.71208324 </i>
    <i name="e_fr_energy">   -422.82792318 </i>
    <i name="e_wo_entrp">   -422.82536859 </i>
    <i name="e_0_energy">   -422.82664588 </i>
   </energy>
  </scstep>
  <structure>
   <crystal>
    <varray name="basis" >
     <v>       4.26620007       0.00000000       0.00000000 </v>
     <v>       0.00000000      39.40950012       0.00000000 </v>
     <v>      -1.42206471       0.00000000       3.18109970 </v>
    </varray>
    <i name="volume">    534.83451311 </i>
    <varray name="rec_basis" >
     <v>       0.23440063       0.00000000       0.10478542 </v>
     <v>       0.00000000       0.02537459       0.00000000 </v>
     <v>       0.00000000       0.00000000       0.31435670 </v>
    </varray>
   </crystal>
   <varray name="positions" >
    <v>       0.00012953      -0.00004887       0.00000000 </v>
    <v>       0.33286824      -0.00004895       0.00000000 </v>
    <v>       0.50012953       0.03127987       0.00000000 </v>
    <v>       0.83286824       0.03127994       0.00000000 </v>
    <v>      -0.00027754       0.06250062       0.00000000 </v>
    <v>       0.33327866       0.06250007       0.00000000 </v>
    <v>       0.50008657       0.09372496       0.00000000 </v>
    <v>       0.83291021       0.09372522       0.00000000 </v>
    <v>       0.00002151       0.12504589       0.00000000 </v>
    <v>       0.33297601       0.12504646       0.00000000 </v>
    <v>       0.49992703       0.15627627       0.00000000 </v>
    <v>       0.83305902       0.15627883       0.00000000 </v>
    <v>       0.00000131       0.18753009       0.00000000 </v>
    <v>       0.33299830       0.18753153       0.00000000 </v>
    <v>       0.49966615       0.21880545       0.00000000 </v>
    <v>       0.83334082       0.21880551       0.00000000 </v>
    <v>       0.00063629       0.25001887       0.00000000 </v>
    <v>       0.33236993       0.25001891       0.00000000 </v>
    <v>       0.50040734       0.28130738       0.00000000 </v>
    <v>       0.83259131       0.28130753       0.00000000 </v>
    <v>      -0.00215794       0.31252188       0.00000000 </v>
    <v>       0.33521671       0.31252396       0.00000000 </v>
    <v>       0.50113129       0.34354046       0.00000000 </v>
    <v>       0.83210603       0.34354443       0.00000000 </v>
    <v>       0.00113129       0.68769053       0.00000000 </v>
    <v>       0.33210603       0.68768656       0.00000000 </v>
    <v>       0.49784206       0.71870813       0.00000000 </v>
    <v>       0.83521671       0.71870604       0.00000000 </v>
    <v>       0.00040734       0.74992265       0.00000000 </v>
    <v>       0.33259131       0.74992251       0.00000000 </v>
    <v>       0.50063629       0.78121212       0.00000000 </v>
    <v>       0.83236993       0.78121208       0.00000000 </v>
    <v>      -0.00033385       0.81242454       0.00000000 </v>
    <v>       0.33334082       0.81242447       0.00000000 </v>
    <v>       0.50000131       0.84369991       0.00000000 </v>
    <v>       0.83299830       0.84369847       0.00000000 </v>
    <v>      -0.00007297       0.87495375       0.00000000 </v>
    <v>       0.33305902       0.87495118       0.00000000 </v>
    <v>       0.50002151       0.90618413       0.00000000 </v>
    <v>       0.83297601       0.90618356       0.00000000 </v>
    <v>       0.00008657       0.93750602       0.00000000 </v>
    <v>       0.33291021       0.93750575       0.00000000 </v>
    <v>       0.49972246       0.96873039       0.00000000 </v>
    <v>       0.83327866       0.96873095       0.00000000 </v>
    <v>       0.98683476       0.37427632       0.00000000 </v>
    <v>       0.34635442       0.37427728       0.00000000 </v>
    <v>       0.48683482       0.65695467       0.00000000 </v>
    <v>       0.84635543       0.65695370       0.00000000 </v>
   </varray>
  </structure>
  <varray name="forces" >
   <v>      -0.08952477       0.03490015       0.00043620 </v>
   <v>       0.09109163       0.03379945      -0.00028358 </v>
   <v>      -0.08952477      -0.03490015       0.00043620 </v>
   <v>       0.09109163      -0.03379945      -0.00028358 </v>
   <v>      -0.07479015      -0.00315754      -0.00161647 </v>
[...]
       <r>   -21.5553     0.0000     0.0000 </r>
       <r>   -21.4304     0.0000     0.0000 </r>
       <r>   -21.3055     0.0000     0.0000 </r>
       <r>   -21.1806     0.0000     0.0000 </r>
       <r>   -21.0557     0.0004     0.0000 </r>
       <r>   -20.9308     0.7050     0.0881 </r>
       <r>   -20.8059     2.4968     0.3999 </r>
       <r>   -20.6810     3.1968     0.7992 </r>
       <r>   -20.5561     1.6875     1.0100 </r>
       <r>   -20.4312     2.6968     1.3468 </r>
       <r>   -20.3063     2.5242     1.6620 </r>
       <r>   -20.1814     1.1163     1.8015 </r>
       <r>   -20.0565     1.5697     1.9975 </r>
       <r>   -19.9316     0.0198     2.0000 </r>
       <r>   -19.8067     0.0000     2.0000 </r>
       <r>   -19.6818     0.0000     2.0000 </r>
       <r>   -19.5569     0.0001     2.0000 </r>
       <r>   -19.4320     0.6193     2.0774 </r>
       <r>   -19.3072     2.0077     2.3281 </r>
       <r>   -19.1823     0.0420     2.3334 </r>
       <r>   -19.0574     1.7187     2.5480 </r>
       <r>   -18.9325     3.6121     2.9991 </r>
       <r>   -18.8076     0.0068     3.0000 </r>
       <r>   -18.6827     0.0007     3.0001 </r>
       <r>   -18.5578     1.9271     3.2408 </r>
       <r>   -18.4329     3.4166     3.6675 </r>
       <r>   -18.3080     1.8205     3.8949 </r>
       <r>   -18.1831     0.8414     4.0000 </r>
       <r>   -18.0582     0.0006     4.0000 </r>
       <r>   -17.9333     0.3579     4.0447 </r>
       <r>   -17.8084     0.7229     4.1350 </r>
       <r>   -17.6835     1.6567     4.3419 </r>
       <r>   -17.5586     1.8810     4.5768 </r>
       <r>   -17.4337     1.4443     4.7572 </r>
       <r>   -17.3088     2.9574     5.1266 </r>
       <r>   -17.1839     3.4344     5.5555 </r>
       <r>   -17.0590     3.0690     5.9388 </r>
       <r>   -16.9341     2.6020     6.2638 </r>
       <r>   -16.8092     4.0487     6.7695 </r>
       <r>   -16.6844     2.7388     7.1115 </r>
       <r>   -16.5595     3.3345     7.5280 </r>
       <r>   -16.4346     1.9676     7.7737 </r>
       <r>   -16.3097     4.1654     8.2940 </r>
       <r>   -16.1848     2.8484     8.6497 </r>
       <r>   -16.0599     3.4317     9.0783 </r>
       <r>   -15.9350     5.4136     9.7545 </r>
       <r>   -15.8101     2.8237    10.1071 </r>
       <r>   -15.6852     1.8057    10.3327 </r>
       <r>   -15.5603     3.9755    10.8292 </r>
       <r>   -15.4354     3.0224    11.2067 </r>
       <r>   -15.3105     1.8878    11.4424 </r>
       <r>   -15.1856     2.2286    11.7208 </r>
       <r>   -15.0607     5.2421    12.3755 </r>
       <r>   -14.9358     4.5412    12.9427 </r>
       <r>   -14.8109     4.9090    13.5558 </r>
       <r>   -14.6860     1.7181    13.7704 </r>
       <r>   -14.5611     4.9449    14.3880 </r>
       <r>   -14.4362     2.6632    14.7206 </r>
       <r>   -14.3113     2.7108    15.0592 </r>
       <r>   -14.1865     3.0213    15.4365 </r>
       <r>   -14.0616     2.6962    15.7732 </r>
       <r>   -13.9367     2.6809    16.1081 </r>
       <r>   -13.8118     4.0502    16.6139 </r>
       <r>   -13.6869     3.2044    17.0141 </r>
       <r>   -13.5620     4.3149    17.5530 </r>
       <r>   -13.4371     6.2342    18.3317 </r>
       <r>   -13.3122     4.6395    18.9111 </r>
       <r>   -13.1873     2.8393    19.2657 </r>
       <r>   -13.0624     2.3035    19.5534 </r>
       <r>   -12.9375     4.6006    20.1280 </r>
       <r>   -12.8126     3.6983    20.5899 </r>
       <r>   -12.6877     3.4192    21.0170 </r>
       <r>   -12.5628     3.5958    21.4661 </r>
       <r>   -12.4379     4.2059    21.9913 </r>
       <r>   -12.3130     2.2663    22.2744 </r>
       <r>   -12.1881     2.8959    22.6361 </r>
       <r>   -12.0632     5.1316    23.2770 </r>
       <r>   -11.9383     4.3755    23.8235 </r>
       <r>   -11.8134     4.4925    24.3846 </r>
       <r>   -11.6885     1.6517    24.5909 </r>
       <r>   -11.5637     2.4908    24.9019 </r>
       <r>   -11.4388     2.4120    25.2032 </r>
       <r>   -11.3139     4.4688    25.7613 </r>
       <r>   -11.1890     2.1865    26.0344 </r>
       <r>   -11.0641     3.2422    26.4393 </r>
       <r>   -10.9392     4.0907    26.9503 </r>
       <r>   -10.8143     4.7383    27.5421 </r>
       <r>   -10.6894     2.4147    27.8436 </r>
       <r>   -10.5645     3.1503    28.2371 </r>
       <r>   -10.4396     3.2090    28.6379 </r>
       <r>   -10.3147     4.6703    29.2212 </r>
       <r>   -10.1898     2.7614    29.5661 </r>
       <r>   -10.0649     3.6977    30.0279 </r>
       <r>    -9.9400     4.4705    30.5862 </r>
       <r>    -9.8151     5.3687    31.2568 </r>
       <r>    -9.6902     4.4235    31.8092 </r>
       <r>    -9.5653     3.5414    32.2515 </r>
       <r>    -9.4404     7.8320    33.2297 </r>
       <r>    -9.3155     8.1642    34.2494 </r>
       <r>    -9.1906     0.6721    34.3333 </r>
       <r>    -9.0658     0.0001    34.3333 </r>
       <r>    -8.9409     0.2167    34.3604 </r>
       <r>    -8.8160     2.5711    34.6815 </r>
       <r>    -8.6911     3.7655    35.1518 </r>
       <r>    -8.5662     7.7693    36.1222 </r>
       <r>    -8.4413     0.3565    36.1667 </r>
       <r>    -8.3164     0.5363    36.2337 </r>
       <r>    -8.1915     3.4974    36.6705 </r>
       <r>    -8.0666     4.1408    37.1876 </r>
       <r>    -7.9417     4.8631    37.7950 </r>
       <r>    -7.8168     9.1385    38.9364 </r>
       <r>    -7.6919     7.4044    39.8612 </r>
       <r>    -7.5670     6.1325    40.6271 </r>
       <r>    -7.4421     5.2594    41.2839 </r>
       <r>    -7.3172     2.9362    41.6507 </r>
       <r>    -7.1923     2.8910    42.0117 </r>
       <r>    -7.0674     4.6413    42.5914 </r>
       <r>    -6.9425     2.9790    42.9635 </r>
       <r>    -6.8176     4.3106    43.5019 </r>
       <r>    -6.6927     3.0840    43.8870 </r>
       <r>    -6.5678     5.4414    44.5666 </r>
       <r>    -6.4430    11.0770    45.9501 </r>
       <r>    -6.3181     6.5155    46.7639 </r>
       <r>    -6.1932     5.6844    47.4738 </r>
       <r>    -6.0683     2.4069    47.7744 </r>
       <r>    -5.9434     7.9065    48.7619 </r>
       <r>    -5.8185    11.8650    50.2438 </r>
       <r>    -5.6936     9.2137    51.3945 </r>
       <r>    -5.5687     7.0649    52.2769 </r>
       <r>    -5.4438     6.0215    53.0290 </r>
       <r>    -5.3189     5.7148    53.7427 </r>
       <r>    -5.1940     6.5823    54.5648 </r>
       <r>    -5.0691     4.4434    55.1198 </r>
       <r>    -4.9442     9.9964    56.3683 </r>
       <r>    -4.8193     9.1240    57.5078 </r>
       <r>    -4.6944    14.7558    59.3507 </r>
       <r>    -4.5695    13.8807    61.0843 </r>
       <r>    -4.4446    10.5075    62.3967 </r>
       <r>    -4.3197    10.9026    63.7584 </r>
       <r>    -4.1948     8.4993    64.8199 </r>
       <r>    -4.0699    13.4081    66.4945 </r>
       <r>    -3.9451    10.0477    67.7494 </r>
       <r>    -3.8202     8.6219    68.8262 </r>
       <r>    -3.6953     6.7610    69.6706 </r>
       <r>    -3.5704    11.1727    71.0661 </r>
       <r>    -3.4455    13.8465    72.7954 </r>
       <r>    -3.3206     7.1872    73.6931 </r>
       <r>    -3.1957     6.9435    74.5603 </r>
       <r>    -3.0708     7.8314    75.5384 </r>
       <r>    -2.9459    11.7290    77.0033 </r>
       <r>    -2.8210     3.3110    77.4168 </r>
       <r>    -2.6961     8.8740    78.5251 </r>
       <r>    -2.5712     9.2641    79.6822 </r>
       <r>    -2.4463     6.6750    80.5158 </r>
       <r>    -2.3214     5.2588    81.1726 </r>
       <r>    -2.1965     7.9342    82.1636 </r>
       <r>    -2.0716     8.0553    83.1696 </r>
       <r>    -1.9467     6.8446    84.0245 </r>
       <r>    -1.8218     8.7464    85.1169 </r>
       <r>    -1.6969     4.9329    85.7330 </r>
       <r>    -1.5720     7.7790    86.7045 </r>
       <r>    -1.4471     5.7585    87.4238 </r>
       <r>    -1.3223     7.7986    88.3978 </r>
       <r>    -1.1974     3.1083    88.7860 </r>
       <r>    -1.0725     9.7339    90.0017 </r>
       <r>    -0.9476    14.2168    91.7773 </r>
       <r>    -0.8227     6.7323    92.6181 </r>
       <r>    -0.6978     5.4109    93.2939 </r>
       <r>    -0.5729     3.1837    93.6916 </r>
       <r>    -0.4480     3.8470    94.1720 </r>
       <r>    -0.3231     3.0129    94.5483 </r>
       <r>    -0.1982     3.4445    94.9785 </r>
       <r>    -0.0733     3.5003    95.4157 </r>
       <r>     0.0516     3.8991    95.9027 </r>
       <r>     0.1765     3.9307    96.3936 </r>
       <r>     0.3014     3.3342    96.8100 </r>
       <r>     0.4263     1.5184    96.9996 </r>
       <r>     0.5512     0.1520    97.0186 </r>
       <r>     0.6761     3.2318    97.4223 </r>
       <r>     0.8010     0.6515    97.5036 </r>
       <r>     0.9259     1.1867    97.6518 </r>
       <r>     1.0508     0.3908    97.7007 </r>
       <r>     1.1756     1.5243    97.8910 </r>
       <r>     1.3005     3.4919    98.3272 </r>
       <r>     1.4254     3.7483    98.7953 </r>
       <r>     1.5503     5.3211    99.4599 </r>
       <r>     1.6752     3.3147    99.8739 </r>
       <r>     1.8001     0.3678    99.9198 </r>
       <r>     1.9250     2.8809   100.2796 </r>
       <r>     2.0499     9.4721   101.4626 </r>
       <r>     2.1748     1.9318   101.7039 </r>
       <r>     2.2997     2.8358   102.0581 </r>
       <r>     2.4246     0.6607   102.1406 </r>
       <r>     2.5495     0.4136   102.1923 </r>
       <r>     2.6744     0.6157   102.2692 </r>
       <r>     2.7993     1.3231   102.4344 </r>
       <r>     2.9242     1.0741   102.5686 </r>
       <r>     3.0491     2.4930   102.8799 </r>
       <r>     3.1740     3.4739   103.3138 </r>
       <r>     3.2989     5.8371   104.0428 </r>
       <r>     3.4238     2.7844   104.3906 </r>
       <r>     3.5487     2.7310   104.7317 </r>
       <r>     3.6736     3.1967   105.1309 </r>
       <r>     3.7984     3.3306   105.5469 </r>
       <r>     3.9233     6.7324   106.3877 </r>
       <r>     4.0482     6.3746   107.1839 </r>
       <r>     4.1731     3.2678   107.5920 </r>
       <r>     4.2980     3.4517   108.0231 </r>
       <r>     4.4229     4.2461   108.5534 </r>
       <r>     4.5478     2.5123   108.8672 </r>
       <r>     4.6727     2.9038   109.2299 </r>
       <r>     4.7976     2.3056   109.5178 </r>
       <r>     4.9225     1.9041   109.7556 </r>
       <r>     5.0474     5.1528   110.3992 </r>
       <r>     5.1723     3.6540   110.8556 </r>
       <r>     5.2972     1.0593   110.9879 </r>
       <r>     5.4221     3.9220   111.4777 </r>
       <r>     5.5470     2.0047   111.7281 </r>
       <r>     5.6719     0.2121   111.7546 </r>
       <r>     5.7968     1.9675   112.0003 </r>
       <r>     5.9217     5.1032   112.6377 </r>
       <r>     6.0466     1.4077   112.8135 </r>
       <r>     6.1715     5.3818   113.4856 </r>
       <r>     6.2963     3.2975   113.8975 </r>
       <r>     6.4212     0.1557   113.9169 </r>
       <r>     6.5461     1.2530   114.0734 </r>
       <r>     6.6710     4.1942   114.5973 </r>
       <r>     6.7959     2.0292   114.8507 </r>
       <r>     6.9208     2.8531   115.2070 </r>
       <r>     7.0457     5.0191   115.8339 </r>
       <r>     7.1706     4.3937   116.3826 </r>
       <r>     7.2955     3.0772   116.7670 </r>
       <r>     7.4204     1.4595   116.9492 </r>
       <r>     7.5453     1.2589   117.1065 </r>
       <r>     7.6702     5.3133   117.7701 </r>
       <r>     7.7951     2.7744   118.1166 </r>
       <r>     7.9200     1.7495   118.3351 </r>
       <r>     8.0449     3.8272   118.8131 </r>
       <r>     8.1698     2.7827   119.1606 </r>
       <r>     8.2947     2.4984   119.4727 </r>
       <r>     8.4196     4.4107   120.0235 </r>
       <r>     8.5445     6.3643   120.8184 </r>
       <r>     8.6694     3.3234   121.2335 </r>
       <r>     8.7943     1.5980   121.4331 </r>
       <r>     8.9191     3.4678   121.8662 </r>
       <r>     9.0440     2.5959   122.1904 </r>
       <r>     9.1689     3.8861   122.6757 </r>
       <r>     9.2938     6.9640   123.5455 </r>
       <r>     9.4187     6.9283   124.4108 </r>
       <r>     9.5436     7.1246   125.3006 </r>
       <r>     9.6685     8.4118   126.3512 </r>
       <r>     9.7934     9.8355   127.5796 </r>
       <r>     9.9183     9.0219   128.7064 </r>
       <r>    10.0432     8.0570   129.7127 </r>
       <r>    10.1681    13.7714   131.4327 </r>
       <r>    10.2930    17.7618   133.6511 </r>
       <r>    10.4179    13.9025   135.3874 </r>
       <r>    10.5428    10.0291   136.6400 </r>
       <r>    10.6677    13.0731   138.2728 </r>
       <r>    10.7926     9.3150   139.4362 </r>
       <r>    10.9175     9.1358   140.5772 </r>
       <r>    11.0424     6.6261   141.4047 </r>
       <r>    11.1673     8.3286   142.4449 </r>
       <r>    11.2922     6.1959   143.2188 </r>
       <r>    11.4170    10.2657   144.5009 </r>
       <r>    11.5419     4.2384   145.0303 </r>
       <r>    11.6668     6.3284   145.8207 </r>
       <r>    11.7917     2.8722   146.1794 </r>
       <r>    11.9166     1.6765   146.3888 </r>
       <r>    12.0415     3.7392   146.8558 </r>
       <r>    12.1664     6.6517   147.6865 </r>
       <r>    12.2913     6.2912   148.4723 </r>
       <r>    12.4162     4.1147   148.9862 </r>
       <r>    12.5411     7.6645   149.9434 </r>
       <r>    12.6660     7.3452   150.8608 </r>
       <r>    12.7909     2.7094   151.1992 </r>
       <r>    12.9158     4.1204   151.7138 </r>
       <r>    13.0407     1.6866   151.9245 </r>
       <r>    13.1656     0.5965   151.9990 </r>
       <r>    13.2905     0.0082   152.0000 </r>
       <r>    13.4154     0.0000   152.0000 </r>
       <r>    13.5403     0.0000   152.0000 </r>
       <r>    13.6652     0.0000   152.0000 </r>
       <r>    13.7901     0.0000   152.0000 </r>
       <r>    13.9150     0.0000   152.0000 </r>
       <r>    14.0398     0.0000   152.0000 </r>
       <r>    14.1647     0.0000   152.0000 </r>
       <r>    14.2896     0.0000   152.0000 </r>
       <r>    14.4145     0.0000   152.0000 </r>
       <r>    14.5394     0.0000   152.0000 </r>
       <r>    14.6643     0.0000   152.0000 </r>
       <r>    14.7892     0.0000   152.0000 </r>
      </set>
     </set>
    </array>
   </total>
  </dos>
 </calculation>
 <structure name="finalpos" >
  <crystal>
   <varray name="basis" >
    <v>       4.26620007       0.00000000       0.00000000 </v>
    <v>       0.00000000      39.40950012       0.00000000 </v>
    <v>      -1.42206471       0.00000000       3.18109970 </v>
   </varray>
   <i name="volume">    534.83451311 </i>
   <varray name="rec_basis" >
    <v>       0.23440063       0.00000000       0.10478542 </v>
    <v>       0.00000000       0.02537459       0.00000000 </v>
    <v>       0.00000000       0.00000000       0.31435670 </v>
   </varray>
  </crystal>
  <varray name="positions" >
   <v>      -0.00027365       0.00000783       0.00000000 </v>
   <v>       0.33324726       0.00000789       0.00000000 </v>
   <v>       0.49972635       0.03122317       0.00000000 </v>
   <v>       0.83324726       0.03122310       0.00000000 </v>
   <v>      -0.00010142       0.06246133       0.00000000 </v>
   <v>       0.33301183       0.06245907       0.00000000 </v>
   <v>       0.49966823       0.09369861       0.00000000 </v>
   <v>       0.83324927       0.09370033       0.00000000 </v>
   <v>      -0.00027308       0.12492436       0.00000000 </v>
   <v>       0.33326526       0.12492629       0.00000000 </v>
   <v>       0.49993855       0.15617451       0.00000000 </v>
   <v>       0.83312972       0.15617360       0.00000000 </v>
   <v>      -0.00031843       0.18741802       0.00000000 </v>
   <v>       0.33345729       0.18742148       0.00000000 </v>
   <v>       0.49976508       0.21863473       0.00000000 </v>
   <v>       0.83340337       0.21863213       0.00000000 </v>
   <v>      -0.00017040       0.24990082       0.00000000 </v>
   <v>       0.33333668       0.24990181       0.00000000 </v>
   <v>       0.49924169       0.28117075       0.00000000 </v>
   <v>       0.83390417       0.28116934       0.00000000 </v>
   <v>       0.00216473       0.31214964       0.00000000 </v>
   <v>       0.33091401       0.31214843       0.00000000 </v>
   <v>       0.50011866       0.34329153       0.00000000 </v>
   <v>       0.83287698       0.34329222       0.00000000 </v>
   <v>       0.00011866       0.68793945       0.00000000 </v>
   <v>       0.33287698       0.68793876       0.00000000 </v>
   <v>       0.50216473       0.71908037       0.00000000 </v>
   <v>       0.83091401       0.71908157       0.00000000 </v>
   <v>      -0.00075831       0.75005929       0.00000000 </v>
   <v>       0.33390417       0.75006070       0.00000000 </v>
   <v>       0.49982960       0.78133017       0.00000000 </v>
   <v>       0.83333668       0.78132918       0.00000000 </v>
   <v>      -0.00023492       0.81259525       0.00000000 </v>
   <v>       0.33340337       0.81259786       0.00000000 </v>
   <v>       0.49968157       0.84381198       0.00000000 </v>
   <v>       0.83345729       0.84380853       0.00000000 </v>
   <v>      -0.00006145       0.87505551       0.00000000 </v>
   <v>       0.33312972       0.87505641       0.00000000 </v>
   <v>       0.49972692       0.90630566       0.00000000 </v>
   <v>       0.83326526       0.90630372       0.00000000 </v>
   <v>      -0.00033177       0.93753236       0.00000000 </v>
   <v>       0.33324927       0.93753065       0.00000000 </v>
   <v>       0.49989858       0.96876969       0.00000000 </v>
   <v>       0.83301183       0.96877194       0.00000000 </v>
   <v>       0.92883304       0.37417703       0.00000000 </v>
   <v>       0.40408709       0.37417364       0.00000000 </v>
   <v>       0.42883310       0.65705395       0.00000000 </v>
   <v>       0.90408811       0.65705735       0.00000000 </v>
  </varray>
  <varray name="selective"  type="logical" >
   <v type="logical" >  T  T  F </v>
   <v type="logical" >  T  T  F </v>
   <v type="logical" >  T  T  F </v>
   <v type="logical" >  T  T  F </v>
   <v type="logical" >  T  T  F </v>
   <v type="logical" >  T  T  F </v>
   <v type="logical" >  T  T  F </v>
   <v type="logical" >  T  T  F </v>
   <v type="logical" >  T  T  F </v>
   <v type="logical" >  T  T  F </v>
   <v type="logical" >  T  T  F </v>
   <v type="logical" >  T  T  F </v>
   <v type="logical" >  T  T  F </v>
   <v type="logical" >  T  T  F </v>
   <v type="logical" >  T  T  F </v>
   <v type="logical" >  T  T  F </v>
   <v type="logical" >  T  T  F </v>
   <v type="logical" >  T  T  F </v>
   <v type="logical" >  T  T  F </v>
   <v type="logical" >  T  T  F </v>
   <v type="logical" >  T  T  F </v>
   <v type="logical" >  T  T  F </v>
   <v type="logical" >  T  T  F </v>
   <v type="logical" >  T  T  F </v>
   <v type="logical" >  T  T  F </v>
   <v type="logical" >  T  T  F </v>
   <v type="logical" >  T  T  F </v>
   <v type="logical" >  T  T  F </v>
   <v type="logical" >  T  T  F </v>
   <v type="logical" >  T  T  F </v>
   <v type="logical" >  T  T  F </v>
   <v type="logical" >  T  T  F </v>
   <v type="logical" >  T  T  F </v>
   <v type="logical" >  T  T  F </v>
   <v type="logical" >  T  T  F </v>
   <v type="logical" >  T  T  F </v>
   <v type="logical" >  T  T  F </v>
   <v type="logical" >  T  T  F </v>
   <v type="logical" >  T  T  F </v>
   <v type="logical" >  T  T  F </v>
   <v type="logical" >  T  T  F </v>
   <v type="logical" >  T  T  F </v>
   <v type="logical" >  T  T  F </v>
   <v type="logical" >  T  T  F </v>
   <v type="logical" >  T  T  F </v>
   <v type="logical" >  T  T  F </v>
   <v type="logical" >  T  T  F </v>
   <v type="logical" >  T  T  F </v>
  </varray>
  <nose>
   <v>      -3.00000000       0.00000000       0.00010000       0.00010000 </v>
  </nose>
 </structure>
</modeling>
