       N       E                     dE             d eps       ncg     rms          rms(c)
RMM:   1     0.210995260817E+04    0.21100E+04   -0.64756E+04 36480   0.889E+02
RMM:   2     0.449990636920E+03   -0.16600E+04   -0.17479E+04 36480   0.230E+02
RMM:   3    -0.986071689628E+02   -0.54860E+03   -0.52487E+03 36480   0.130E+02
RMM:   4    -0.311062073342E+03   -0.21245E+03   -0.15819E+03 36480   0.847E+01
RMM:   5    -0.370402997831E+03   -0.59341E+02   -0.49228E+02 36480   0.473E+01
RMM:   6    -0.390136552474E+03   -0.19734E+02   -0.16764E+02 36480   0.285E+01
RMM:   7    -0.396826867485E+03   -0.66903E+01   -0.61390E+01 36480   0.168E+01
RMM:   8    -0.399377692669E+03   -0.25508E+01   -0.23470E+01 36480   0.104E+01
RMM:   9    -0.400924504524E+03   -0.15468E+01   -0.15008E+01100863   0.638E+00
RMM:  10    -0.401065549472E+03   -0.14104E+00   -0.11877E+00110381   0.169E+00
RMM:  11    -0.401068887745E+03   -0.33383E-02   -0.31923E-02100612   0.273E-01
RMM:  12    -0.401069479673E+03   -0.59193E-03   -0.56545E-03 81836   0.853E-02
RMM:  13    -0.401069493763E+03   -0.14090E-04   -0.13191E-04 67546   0.209E-02
   1 F= -.40709604E+03 E0= -.40709057E+03  d E =-.109404E-01  mag=     2.3923
       N       E                     dE             d eps       ncg     rms          rms(c)
RMM:   1    -0.401069497784E+03   -0.18111E-04   -0.37629E-05 62077   0.116E-02
RMM:   2    -0.401069498717E+03   -0.93254E-06   -0.83844E-06 53048   0.740E-03
   2 F= -.40709604E+03 E0= -.40709057E+03  d E =-.109404E-01  mag=     2.3923
       N       E                     dE             d eps       ncg     rms          rms(c)
RMM:   1    -0.401069499022E+03   -0.12380E-05   -0.28869E-06 43811   0.562E-03
RMM:   2    -0.401069499136E+03   -0.11330E-06   -0.10560E-06 38257   0.494E-03
   3 F= -.40709604E+03 E0= -.40709057E+03  d E =-.109404E-01  mag=     2.3923
