 vasp.5.4.4.18Apr17-6-g9f103f2a35 (build Oct 03 2018 13:58:34) complex          
  
 executed on             LinuxIFC date 2022.02.07  16:23:36
 running on   40 total cores
 distrk:  each k-point on   40 cores,    1 groups
 distr:  one band on NCORES_PER_BAND=  10 cores,    4 groups


--------------------------------------------------------------------------------------------------------


 INCAR:
 POTCAR:    PAW_PBE C 08Apr2002                   
 POTCAR:    PAW_PBE O 08Apr2002                   
 POTCAR:    PAW_PBE C 08Apr2002                   
   VRHFIN =C: s2p2                                                              
   LEXCH  = PE                                                                  
   EATOM  =   147.1560 eV,   10.8157 Ry                                         
                                                                                
   TITEL  = PAW_PBE C 08Apr2002                                                 
   LULTRA =        F    use ultrasoft PP ?                                      
   IUNSCR =        1    unscreen: 0-lin 1-nonlin 2-no                           
   RPACOR =    1.200    partial core radius                                     
   POMASS =   12.011; ZVAL   =    4.000    mass and valenz                      
   RCORE  =    1.500    outmost cutoff radius                                   
   RWIGS  =    1.630; RWIGS  =    0.863    wigner-seitz radius (au A)           
   ENMAX  =  400.000; ENMIN  =  300.000 eV                                      
   ICORE  =        2    local potential                                         
   LCOR   =        T    correct aug charges                                     
   LPAW   =        T    paw PP                                                  
   EAUG   =  644.873                                                            
   DEXC   =    0.000                                                            
   RMAX   =    1.529    core radius for proj-oper                               
   RAUG   =    1.300    factor for augmentation sphere                          
   RDEP   =    1.501    radius for radial grids                                 
   RDEPT  =    1.300    core radius for aug-charge                              
                                                                                
   Atomic configuration                                                         
    4 entries                                                                   
     n  l   j            E        occ.                                          
     1  0  0.50      -273.3789   2.0000                                         
     2  0  0.50       -13.7508   2.0000                                         
     2  1  0.50        -5.2854   2.0000                                         
     3  2  1.50        -5.4423   0.0000                                         
   Description                                                                  
     l       E           TYP  RCUT    TYP  RCUT                                 
     0    -13.7508458     23  1.200                                             
     0     -8.2022199     23  1.200                                             
     1     -5.2854383     23  1.500                                             
     1     34.0145650     23  1.500                                             
     2     -5.4423304      7  1.500                                             
  local pseudopotential read in
  partial core-charges read in
  partial kinetic energy density read in
  atomic valenz-charges read in
  non local Contribution for L=           0  read in
    real space projection operators read in
  non local Contribution for L=           0  read in
    real space projection operators read in
  non local Contribution for L=           1  read in
    real space projection operators read in
  non local Contribution for L=           1  read in
    real space projection operators read in
    PAW grid and wavefunctions read in
 
   number of l-projection  operators is LMAX  =           4
   number of lm-projection operators is LMMAX =           8
 
 POTCAR:    PAW_PBE O 08Apr2002                   
   VRHFIN =O: s2p4                                                              
   LEXCH  = PE                                                                  
   EATOM  =   432.3788 eV,   31.7789 Ry                                         
                                                                                
   TITEL  = PAW_PBE O 08Apr2002                                                 
   LULTRA =        F    use ultrasoft PP ?                                      
   IUNSCR =        1    unscreen: 0-lin 1-nonlin 2-no                           
   RPACOR =    1.200    partial core radius                                     
   POMASS =   16.000; ZVAL   =    6.000    mass and valenz                      
   RCORE  =    1.520    outmost cutoff radius                                   
   RWIGS  =    1.550; RWIGS  =    0.820    wigner-seitz radius (au A)           
   ENMAX  =  400.000; ENMIN  =  300.000 eV                                      
   ICORE  =        2    local potential                                         
   LCOR   =        T    correct aug charges                                     
   LPAW   =        T    paw PP                                                  
   EAUG   =  605.392                                                            
   DEXC   =    0.000                                                            
   RMAX   =    1.553    core radius for proj-oper                               
   RAUG   =    1.300    factor for augmentation sphere                          
   RDEP   =    1.550    radius for radial grids                                 
   RDEPT  =    1.329    core radius for aug-charge                              
                                                                                
   Atomic configuration                                                         
    4 entries                                                                   
     n  l   j            E        occ.                                          
     1  0  0.50      -514.6923   2.0000                                         
     2  0  0.50       -23.9615   2.0000                                         
     2  1  0.50        -9.0305   4.0000                                         
     3  2  1.50        -9.5241   0.0000                                         
   Description                                                                  
     l       E           TYP  RCUT    TYP  RCUT                                 
     0    -23.9615318     23  1.200                                             
     0     -9.5240782     23  1.200                                             
     1     -9.0304911     23  1.520                                             
     1      8.1634956     23  1.520                                             
     2     -9.5240782      7  1.500                                             
  local pseudopotential read in
  partial core-charges read in
  partial kinetic energy density read in
  kinetic energy density of atom read in
  atomic valenz-charges read in
  non local Contribution for L=           0  read in
    real space projection operators read in
  non local Contribution for L=           0  read in
    real space projection operators read in
  non local Contribution for L=           1  read in
    real space projection operators read in
  non local Contribution for L=           1  read in
    real space projection operators read in
    PAW grid and wavefunctions read in
 
   number of l-projection  operators is LMAX  =           4
   number of lm-projection operators is LMMAX =           8
 
 Optimization of the real space projectors (new method)

 maximal supplied QI-value         = 25.13
 optimisation between [QCUT,QGAM] = [ 10.81, 21.61] = [ 32.71,130.83] Ry 
 Optimized for a Real-space Cutoff    1.23 Angstroem

   l    n(q)    QCUT    max X(q) W(low)/X(q) W(high)/X(q)  e(spline) 
   0      8    10.807   115.676    0.36E-03    0.72E-03    0.24E-06
   0      8    10.807    87.132    0.35E-03    0.71E-03    0.24E-06
   1      7    10.807     4.429    0.19E-03    0.39E-03    0.11E-06
   1      7    10.807     2.733    0.14E-03    0.28E-03    0.13E-06
 Optimization of the real space projectors (new method)

 maximal supplied QI-value         = 24.76
 optimisation between [QCUT,QGAM] = [ 10.64, 21.54] = [ 31.73,129.89] Ry 
 Optimized for a Real-space Cutoff    1.23 Angstroem

   l    n(q)    QCUT    max X(q) W(low)/X(q) W(high)/X(q)  e(spline) 
   0      8    10.645    20.381    0.38E-03    0.60E-03    0.15E-06
   0      8    10.645    15.268    0.40E-03    0.65E-03    0.17E-06
   1      7    10.645     5.964    0.30E-03    0.63E-03    0.18E-06
   1      7    10.645     5.382    0.24E-03    0.53E-03    0.16E-06
  PAW_PBE C 08Apr2002                   :
 energy of atom  1       EATOM= -147.1560
 kinetic energy error for atom=    0.0116 (will be added to EATOM!!)
  PAW_PBE O 08Apr2002                   :
 energy of atom  2       EATOM= -432.3788
 kinetic energy error for atom=    0.0389 (will be added to EATOM!!)
 
 
 POSCAR: # Bulk supercell                        
  positions in direct lattice
  velocities in cartesian coordinates
 exchange correlation table for  LEXCH =        8
   RHO(1)=    0.500       N(1)  =     2000
   RHO(2)=  100.500       N(2)  =     4000
 


--------------------------------------------------------------------------------------------------------


 ion  position               nearest neighbor table
   1  1.000  0.000  0.000-   4 1.42  44 1.42   2 1.42
   2  0.333  0.000  0.000-   3 1.42  43 1.42   1 1.42
   3  0.500  0.031  0.000-   2 1.42   6 1.42   4 1.42
   4  0.833  0.031  0.000-   1 1.42   5 1.42   3 1.42
   5  1.000  0.062  0.000-   6 1.42   4 1.42   8 1.42
   6  0.333  0.062  0.000-   5 1.42   3 1.42   7 1.42
   7  0.500  0.094  0.000-  10 1.42   6 1.42   8 1.42
   8  0.833  0.094  0.000-   9 1.42   5 1.42   7 1.42
   9  1.000  0.125  0.000-   8 1.42  12 1.42  10 1.42
  10  0.333  0.125  0.000-   7 1.42  11 1.42   9 1.42
  11  0.500  0.156  0.000-  12 1.42  14 1.42  10 1.42
  12  0.833  0.156  0.000-  11 1.42  13 1.42   9 1.42
  13  1.000  0.187  0.000-  16 1.42  12 1.42  14 1.42
  14  0.333  0.187  0.000-  15 1.42  11 1.42  13 1.42
  15  0.500  0.219  0.000-  14 1.42  18 1.42  16 1.42
  16  0.833  0.219  0.000-  13 1.42  17 1.42  15 1.42
  17  1.000  0.250  0.000-  20 1.42  16 1.42  18 1.42
  18  0.333  0.250  0.000-  19 1.42  15 1.42  17 1.42
  19  0.499  0.281  0.000-  22 1.42  18 1.42  20 1.43
  20  0.834  0.281  0.000-  21 1.42  17 1.42  19 1.43
  21  0.002  0.312  0.000-  22 1.40  20 1.42  24 1.42
  22  0.331  0.312  0.000-  21 1.40  19 1.42  23 1.42
  23  0.500  0.343  0.000-  46 1.28  24 1.42  22 1.42
  24  0.833  0.343  0.000-  45 1.28  23 1.42  21 1.42
  25  0.000  0.688  0.000-  48 1.28  26 1.42  28 1.42
  26  0.333  0.688  0.000-  47 1.28  25 1.42  27 1.42
  27  0.502  0.719  0.000-  28 1.40  30 1.42  26 1.42
  28  0.831  0.719  0.000-  27 1.40  29 1.42  25 1.42
  29  0.999  0.750  0.000-  28 1.42  32 1.42  30 1.43
  30  0.334  0.750  0.000-  27 1.42  31 1.42  29 1.43
  31  0.500  0.781  0.000-  30 1.42  34 1.42  32 1.42
  32  0.833  0.781  0.000-  29 1.42  33 1.42  31 1.42
  33  1.000  0.813  0.000-  36 1.42  32 1.42  34 1.42
  34  0.333  0.813  0.000-  35 1.42  31 1.42  33 1.42
  35  0.500  0.844  0.000-  34 1.42  38 1.42  36 1.42
  36  0.833  0.844  0.000-  33 1.42  37 1.42  35 1.42
  37  1.000  0.875  0.000-  38 1.42  36 1.42  40 1.42
  38  0.333  0.875  0.000-  37 1.42  35 1.42  39 1.42
  39  0.500  0.906  0.000-  42 1.42  38 1.42  40 1.42
  40  0.833  0.906  0.000-  41 1.42  37 1.42  39 1.42
  41  1.000  0.938  0.000-  40 1.42  44 1.42  42 1.42
  42  0.333  0.938  0.000-  39 1.42  43 1.42  41 1.42
  43  0.500  0.969  0.000-  44 1.42   2 1.42  42 1.42
  44  0.833  0.969  0.000-  43 1.42   1 1.42  41 1.42
  45  0.929  0.374  0.000-  24 1.28
  46  0.404  0.374  0.000-  23 1.28
  47  0.429  0.657  0.000-  26 1.28
  48  0.904  0.657  0.000-  25 1.28
 
  LATTYP: Found a simple monoclinic cell.
 ALAT       =     4.2671420396
 B/A-ratio  =     9.2355726048
 C/A-ratio  =     1.5277654391
 COS(beta)  =    -0.8729266537
  
  Lattice vectors:
  
 A1 = (  -2.8441353514,   0.0000000000,  -3.1810996981)
 A2 = (   0.0000000000, -39.4095001221,   0.0000000000)
 A3 = (   1.4220706372,   0.0000000000,   6.3621993962)


Analysis of symmetry for initial positions (statically):
=====================================================================
 Subroutine PRICEL returns:
 Original cell was already a primitive cell.
 

 Routine SETGRP: Setting up the symmetry group for a 
 simple monoclinic supercell.


 Subroutine GETGRP returns: Found  2 space group operations
 (whereof  1 operations were pure point group operations)
 out of a pool of  4 trial point group operations.


The static configuration has the point symmetry C_1 .
 The point group associated with its full space group is C_1h.


Analysis of symmetry for dynamics (positions and initial velocities):
=====================================================================
 Subroutine PRICEL returns:
 Original cell was already a primitive cell.
 

 Routine SETGRP: Setting up the symmetry group for a 
 simple monoclinic supercell.


 Subroutine GETGRP returns: Found  2 space group operations
 (whereof  1 operations were pure point group operations)
 out of a pool of  4 trial point group operations.


The dynamic configuration has the point symmetry C_1 .
 The point group associated with its full space group is C_1h.


Analysis of constrained symmetry for selective dynamics:
=====================================================================
 Subroutine PRICEL returns:
 Original cell was already a primitive cell.
 

 Routine SETGRP: Setting up the symmetry group for a 
 simple monoclinic supercell.


 Subroutine GETGRP returns: Found  2 space group operations
 (whereof  1 operations were pure point group operations)
 out of a pool of  4 trial point group operations.


The constrained configuration has the point symmetry C_1 .
 The point group associated with its full space group is C_1h.


Analysis of structural, dynamic, and magnetic symmetry:
=====================================================================
 Subroutine PRICEL returns:
 Original cell was already a primitive cell.
 

 Routine SETGRP: Setting up the symmetry group for a 
 simple monoclinic supercell.


 Subroutine GETGRP returns: Found  2 space group operations
 (whereof  1 operations were pure point group operations)
 out of a pool of  4 trial point group operations.


The magnetic configuration has the point symmetry C_1 .
 The point group associated with its full space group is C_1h.


 Subroutine INISYM returns: Found  2 space group operations
 (whereof  1 operations are pure point group operations),
 and found     1 'primitive' translations

 
 
 KPOINTS: Line_mode KPOINTS file                  
  interpolating k-points between supplied coordinates
  k-points in reciprocal lattice
Space group operators:
 irot       det(A)        alpha          n_x          n_y          n_z        tau_x        tau_y        tau_z
    1     1.000000     0.000001     1.000000     0.000000     0.000000     0.000000     0.000000     0.000000
    2    -1.000000   180.000000     0.000000     1.000000     0.000000     0.500000    -0.968769     1.000000


--------------------------------------------------------------------------------------------------------




 Dimension of arrays:
   k-points           NKPTS =    120   k-points in BZ     NKDIM =    120   number of bands    NBANDS=    152
   number of dos      NEDOS =    301   number of ions     NIONS =     48
   non local maximal  LDIM  =      4   non local SUM 2l+1 LMDIM =      8
   total plane-waves  NPLWV =  90720
   max r-space proj   IRMAX =   1362   max aug-charges    IRDMAX=   2400
   dimension x,y,z NGX =    24 NGY =  210 NGZ =   18
   dimension x,y,z NGXF=    48 NGYF=  420 NGZF=   36
   support grid    NGXF=    48 NGYF=  420 NGZF=   36
   ions per type =              44   4
   NGX,Y,Z   is equivalent  to a cutoff of   9.35,  8.86,  8.59 a.u.
   NGXF,Y,Z  is equivalent  to a cutoff of  18.70, 17.72, 17.18 a.u.

 SYSTEM =  metal                                   
 POSCAR =  # Bulk supercell                        

 Startparameter for this run:
   NWRITE =      2    write-flag & timer
   PREC   = normal    normal or accurate (medium, high low for compatibility)
   ISTART =      0    job   : 0-new  1-cont  2-samecut
   ICHARG =     11    charge: 1-file 2-atom 10-const
   ISPIN  =      2    spin polarized calculation?
   LNONCOLLINEAR =      F non collinear calculations
   LSORBIT =      F    spin-orbit coupling
   INIWAV =      1    electr: 0-lowe 1-rand  2-diag
   LASPH  =      F    aspherical Exc in radial PAW
   METAGGA=      F    non-selfconsistent MetaGGA calc.

 Electronic Relaxation 1
   ENCUT  =  450.0 eV  33.07 Ry    5.75 a.u.   7.38 68.17  6.03*2*pi/ulx,y,z
   ENINI  =  450.0     initial cutoff
   ENAUG  =  644.9 eV  augmentation charge cutoff
   NELM   =    120;   NELMIN=  2; NELMDL=-12     # of ELM steps 
   EDIFF  = 0.1E-03   stopping-criterion for ELM
   LREAL  =      T    real-space projection
   NLSPLINE    = F    spline interpolate recip. space projectors
   LCOMPAT=      F    compatible to vasp.4.4
   GGA_COMPAT  = T    GGA compatible to vasp.4.4-vasp.4.6
   LMAXPAW     = -100 max onsite density
   LMAXMIX     =    2 max onsite mixed and CHGCAR
   VOSKOWN=      0    Vosko Wilk Nusair interpolation
   ROPT   =   -0.00050  -0.00050
 Ionic relaxation
   EDIFFG = -.1E-01   stopping-criterion for IOM
   NSW    =      3    number of steps for IOM
   NBLOCK =      1;   KBLOCK =      3    inner block; outer block 
   IBRION =     -1    ionic relax: 0-MD 1-quasi-New 2-CG
   NFREE  =      0    steps in history (QN), initial steepest desc. (CG)
   ISIF   =      0    stress and relaxation
   IWAVPR =     10    prediction:  0-non 1-charg 2-wave 3-comb
   ISYM   =      2    0-nonsym 1-usesym 2-fastsym
   LCORR  =      T    Harris-Foulkes like correction to forces

   POTIM  = 0.5000    time-step for ionic-motion
   TEIN   =    0.0    initial temperature
   TEBEG  =    0.0;   TEEND  =   0.0 temperature during run
   SMASS  =  -3.00    Nose mass-parameter (am)
   estimated Nose-frequenzy (Omega)   =  0.10E-29 period in steps =****** mass=  -0.416E-27a.u.
   SCALEE = 1.0000    scale energy and forces
   NPACO  =    256;   APACO  = 16.0  distance and # of slots for P.C.
   PSTRESS=    0.0 pullay stress

  Mass of Ions in am
   POMASS =  12.01 16.00
  Ionic Valenz
   ZVAL   =   4.00  6.00
  Atomic Wigner-Seitz radii
   RWIGS  =  -1.00 -1.00
  virtual crystal weights 
   VCA    =   1.00  1.00
   NELECT =     200.0000    total number of electrons
   NUPDOWN=      -1.0000    fix difference up-down

 DOS related values:
   EMIN   =  10.00;   EMAX   =-10.00  energy-range for DOS
   EFERMI =   0.00
   ISMEAR =     0;   SIGMA  =   0.05  broadening in eV -4-tet -1-fermi 0-gaus

 Electronic relaxation 2 (details)
   IALGO  =     48    algorithm
   LDIAG  =      T    sub-space diagonalisation (order eigenvalues)
   LSUBROT=      F    optimize rotation matrix (better conditioning)
   TURBO    =      0    0=normal 1=particle mesh
   IRESTART =      0    0=no restart 2=restart with 2 vectors
   NREBOOT  =      0    no. of reboots
   NMIN     =      0    reboot dimension
   EREF     =   0.00    reference energy to select bands
   IMIX   =      4    mixing-type and parameters
     AMIX     =   0.40;   BMIX     =  1.00
     AMIX_MAG =   1.60;   BMIX_MAG =  1.00
     AMIN     =   0.10
     WC   =   100.;   INIMIX=   1;  MIXPRE=   1;  MAXMIX= -45

 Intra band minimization:
   WEIMIN = 0.0000     energy-eigenvalue tresh-hold
   EBREAK =  0.16E-06  absolut break condition
   DEPER  =   0.30     relativ break condition  

   TIME   =   0.40     timestep for ELM

  volume/ion in A,a.u.               =      11.14        75.19
  Fermi-wavevector in a.u.,A,eV,Ry     =   1.179447  2.228831 18.926993  1.391095
  Thomas-Fermi vector in A             =   2.315757
 
 Write flags
   LWAVE        =      F    write WAVECAR
   LDOWNSAMPLE  =      F    k-point downsampling of WAVECAR
   LCHARG       =      T    write CHGCAR
   LVTOT        =      F    write LOCPOT, total local potential
   LVHAR        =      F    write LOCPOT, Hartree potential only
   LELF         =      F    write electronic localiz. function (ELF)
   LORBIT       =      0    0 simple, 1 ext, 2 COOP (PROOUT), +10 PAW based schemes


 Dipole corrections
   LMONO  =      F    monopole corrections only (constant potential shift)
   LDIPOL =      F    correct potential (dipole corrections)
   IDIPOL =      0    1-x, 2-y, 3-z, 4-all directions 
   EPSILON=  1.0000000 bulk dielectric constant

 Exchange correlation treatment:
   GGA     =    --    GGA type
   LEXCH   =     8    internal setting for exchange type
   VOSKOWN=      0    Vosko Wilk Nusair interpolation
   LHFCALC =     F    Hartree Fock is set to
   LHFONE  =     F    Hartree Fock one center treatment
   AEXX    =    0.0000 exact exchange contribution

 Linear response parameters
   LEPSILON=     F    determine dielectric tensor
   LRPA    =     F    only Hartree local field effects (RPA)
   LNABLA  =     F    use nabla operator in PAW spheres
   LVEL    =     F    velocity operator in full k-point grid
   LINTERFAST=   F  fast interpolation
   KINTER  =     0    interpolate to denser k-point grid
   CSHIFT  =0.1000    complex shift for real part using Kramers Kronig
   OMEGAMAX=  -1.0    maximum frequency
   DEG_THRESHOLD= 0.2000000E-02 threshold for treating states as degnerate
   RTIME   =   -0.100 relaxation time in fs
  (WPLASMAI=    0.000 imaginary part of plasma frequency in eV, 0.658/RTIME)
   DFIELD  = 0.0000000 0.0000000 0.0000000 field for delta impulse in time
 
 Orbital magnetization related:
   ORBITALMAG=     F  switch on orbital magnetization
   LCHIMAG   =     F  perturbation theory with respect to B field
   DQ        =  0.001000  dq finite difference perturbation B field
   LLRAUG    =     F  two centre corrections for induced B field



--------------------------------------------------------------------------------------------------------


 Static calculation
 charge density and potential remain constant during run
 spin polarized calculation
 RMM-DIIS sequential band-by-band
 perform sub-space diagonalisation
    before iterative eigenvector-optimisation
 no mixing
 using additional bands           52
 real space projection scheme for non local part
 use partial core corrections
 calculate Harris-corrections to forces 
   (improved forces if not selfconsistent)
 use gradient corrections 
 WARNING: stress and forces are not correct
  (second derivative of E(xc) not defined)
 use of overlap-Matrix (Vanderbilt PP)
 Gauss-broadening in eV      SIGMA  =   0.05


--------------------------------------------------------------------------------------------------------


  energy-cutoff  :      450.00
  volume of cell :      534.83
      direct lattice vectors                 reciprocal lattice vectors
     4.266200066  0.000000000  0.000000000     0.234400634  0.000000000  0.104785421
     0.000000000 39.409500122  0.000000000     0.000000000  0.025374592  0.000000000
    -1.422064714  0.000000000  3.181099698     0.000000000  0.000000000  0.314356699

  length of vectors
     4.266200066 39.409500122  3.484488964     0.256755996  0.025374592  0.314356699


 
 k-points in units of 2pi/SCALE and weight: Line_mode KPOINTS file                  
   0.00000000  0.00000000  0.00000000       0.008
   0.00300514  0.00032532  0.00134340       0.008
   0.00601027  0.00065063  0.00268681       0.008
   0.00901541  0.00097595  0.00403021       0.008
   0.01202055  0.00130126  0.00537361       0.008
   0.01502568  0.00162658  0.00671701       0.008
   0.01803082  0.00195189  0.00806042       0.008
   0.02103595  0.00227721  0.00940382       0.008
   0.02404109  0.00260252  0.01074722       0.008
   0.02704623  0.00292784  0.01209063       0.008
   0.03005136  0.00325315  0.01343403       0.008
   0.03305650  0.00357847  0.01477743       0.008
   0.03606164  0.00390378  0.01612083       0.008
   0.03906677  0.00422910  0.01746424       0.008
   0.04207191  0.00455441  0.01880764       0.008
   0.04507704  0.00487973  0.02015104       0.008
   0.04808218  0.00520504  0.02149445       0.008
   0.05108732  0.00553036  0.02283785       0.008
   0.05409245  0.00585568  0.02418125       0.008
   0.05709759  0.00618099  0.02552465       0.008
   0.06010273  0.00650631  0.02686806       0.008
   0.06310786  0.00683162  0.02821146       0.008
   0.06611300  0.00715694  0.02955486       0.008
   0.06911814  0.00748225  0.03089827       0.008
   0.07212327  0.00780757  0.03224167       0.008
   0.07512841  0.00813288  0.03358507       0.008
   0.07813354  0.00845820  0.03492847       0.008
   0.08113868  0.00878351  0.03627188       0.008
   0.08414382  0.00910883  0.03761528       0.008
   0.08714895  0.00943414  0.03895868       0.008
   0.09015409  0.00975946  0.04030208       0.008
   0.09315923  0.01008477  0.04164549       0.008
   0.09616436  0.01041009  0.04298889       0.008
   0.09916950  0.01073540  0.04433229       0.008
   0.10217464  0.01106072  0.04567570       0.008
   0.10517977  0.01138604  0.04701910       0.008
   0.10818491  0.01171135  0.04836250       0.008
   0.11119004  0.01203667  0.04970590       0.008
   0.11419518  0.01236198  0.05104931       0.008
   0.11720032  0.01268730  0.05239271       0.008
   0.11720032  0.01268730  0.05239271       0.008
   0.11419518  0.01268730  0.05104931       0.008
   0.11119004  0.01268730  0.04970590       0.008
   0.10818491  0.01268730  0.04836250       0.008
   0.10517977  0.01268730  0.04701910       0.008
   0.10217464  0.01268730  0.04567570       0.008
   0.09916950  0.01268730  0.04433229       0.008
   0.09616436  0.01268730  0.04298889       0.008
   0.09315923  0.01268730  0.04164549       0.008
   0.09015409  0.01268730  0.04030208       0.008
   0.08714895  0.01268730  0.03895868       0.008
   0.08414382  0.01268730  0.03761528       0.008
   0.08113868  0.01268730  0.03627188       0.008
   0.07813354  0.01268730  0.03492847       0.008
   0.07512841  0.01268730  0.03358507       0.008
   0.07212327  0.01268730  0.03224167       0.008
   0.06911814  0.01268730  0.03089827       0.008
   0.06611300  0.01268730  0.02955486       0.008
   0.06310786  0.01268730  0.02821146       0.008
   0.06010273  0.01268730  0.02686806       0.008
   0.05709759  0.01268730  0.02552465       0.008
   0.05409245  0.01268730  0.02418125       0.008
   0.05108732  0.01268730  0.02283785       0.008
   0.04808218  0.01268730  0.02149445       0.008
   0.04507704  0.01268730  0.02015104       0.008
   0.04207191  0.01268730  0.01880764       0.008
   0.03906677  0.01268730  0.01746424       0.008
   0.03606164  0.01268730  0.01612083       0.008
   0.03305650  0.01268730  0.01477743       0.008
   0.03005136  0.01268730  0.01343403       0.008
   0.02704623  0.01268730  0.01209063       0.008
   0.02404109  0.01268730  0.01074722       0.008
   0.02103595  0.01268730  0.00940382       0.008
   0.01803082  0.01268730  0.00806042       0.008
   0.01502568  0.01268730  0.00671701       0.008
   0.01202055  0.01268730  0.00537361       0.008
   0.00901541  0.01268730  0.00403021       0.008
   0.00601027  0.01268730  0.00268681       0.008
   0.00300514  0.01268730  0.00134340       0.008
   0.00000000  0.01268730  0.00000000       0.008
   0.00000000  0.01268730  0.00000000       0.008
   0.00300514  0.01236198  0.00134340       0.008
   0.00601027  0.01203667  0.00268681       0.008
   0.00901541  0.01171135  0.00403021       0.008
   0.01202055  0.01138604  0.00537361       0.008
   0.01502568  0.01106072  0.00671701       0.008
   0.01803082  0.01073540  0.00806042       0.008
   0.02103595  0.01041009  0.00940382       0.008
   0.02404109  0.01008477  0.01074722       0.008
   0.02704623  0.00975946  0.01209063       0.008
   0.03005136  0.00943414  0.01343403       0.008
   0.03305650  0.00910883  0.01477743       0.008
   0.03606164  0.00878351  0.01612083       0.008
   0.03906677  0.00845820  0.01746424       0.008
   0.04207191  0.00813288  0.01880764       0.008
   0.04507704  0.00780757  0.02015104       0.008
   0.04808218  0.00748225  0.02149445       0.008
   0.05108732  0.00715694  0.02283785       0.008
   0.05409245  0.00683162  0.02418125       0.008
   0.05709759  0.00650631  0.02552465       0.008
   0.06010273  0.00618099  0.02686806       0.008
   0.06310786  0.00585568  0.02821146       0.008
   0.06611300  0.00553036  0.02955486       0.008
   0.06911814  0.00520504  0.03089827       0.008
   0.07212327  0.00487973  0.03224167       0.008
   0.07512841  0.00455441  0.03358507       0.008
   0.07813354  0.00422910  0.03492847       0.008
   0.08113868  0.00390378  0.03627188       0.008
   0.08414382  0.00357847  0.03761528       0.008
   0.08714895  0.00325315  0.03895868       0.008
   0.09015409  0.00292784  0.04030208       0.008
   0.09315923  0.00260252  0.04164549       0.008
   0.09616436  0.00227721  0.04298889       0.008
   0.09916950  0.00195189  0.04433229       0.008
   0.10217464  0.00162658  0.04567570       0.008
   0.10517977  0.00130126  0.04701910       0.008
   0.10818491  0.00097595  0.04836250       0.008
   0.11119004  0.00065063  0.04970590       0.008
   0.11419518  0.00032532  0.05104931       0.008
   0.11720032  0.00000000  0.05239271       0.008
 
 k-points in reciprocal lattice and weights: Line_mode KPOINTS file                  
   0.00000000  0.00000000  0.00000000       0.008
   0.01282051  0.01282051  0.00000000       0.008
   0.02564103  0.02564103  0.00000000       0.008
   0.03846154  0.03846154  0.00000000       0.008
   0.05128205  0.05128205  0.00000000       0.008
   0.06410256  0.06410256  0.00000000       0.008
   0.07692308  0.07692308  0.00000000       0.008
   0.08974359  0.08974359  0.00000000       0.008
   0.10256410  0.10256410  0.00000000       0.008
   0.11538462  0.11538462  0.00000000       0.008
   0.12820513  0.12820513  0.00000000       0.008
   0.14102564  0.14102564  0.00000000       0.008
   0.15384615  0.15384615  0.00000000       0.008
   0.16666667  0.16666667  0.00000000       0.008
   0.17948718  0.17948718  0.00000000       0.008
   0.19230769  0.19230769  0.00000000       0.008
   0.20512821  0.20512821  0.00000000       0.008
   0.21794872  0.21794872  0.00000000       0.008
   0.23076923  0.23076923  0.00000000       0.008
   0.24358974  0.24358974  0.00000000       0.008
   0.25641026  0.25641026  0.00000000       0.008
   0.26923077  0.26923077  0.00000000       0.008
   0.28205128  0.28205128  0.00000000       0.008
   0.29487179  0.29487179  0.00000000       0.008
   0.30769231  0.30769231  0.00000000       0.008
   0.32051282  0.32051282  0.00000000       0.008
   0.33333333  0.33333333  0.00000000       0.008
   0.34615385  0.34615385  0.00000000       0.008
   0.35897436  0.35897436  0.00000000       0.008
   0.37179487  0.37179487  0.00000000       0.008
   0.38461538  0.38461538  0.00000000       0.008
   0.39743590  0.39743590  0.00000000       0.008
   0.41025641  0.41025641  0.00000000       0.008
   0.42307692  0.42307692  0.00000000       0.008
   0.43589744  0.43589744  0.00000000       0.008
   0.44871795  0.44871795  0.00000000       0.008
   0.46153846  0.46153846  0.00000000       0.008
   0.47435897  0.47435897  0.00000000       0.008
   0.48717949  0.48717949  0.00000000       0.008
   0.50000000  0.50000000  0.00000000       0.008
   0.50000000  0.50000000  0.00000000       0.008
   0.48717949  0.50000000  0.00000000       0.008
   0.47435897  0.50000000  0.00000000       0.008
   0.46153846  0.50000000  0.00000000       0.008
   0.44871795  0.50000000  0.00000000       0.008
   0.43589744  0.50000000  0.00000000       0.008
   0.42307692  0.50000000  0.00000000       0.008
   0.41025641  0.50000000  0.00000000       0.008
   0.39743590  0.50000000  0.00000000       0.008
   0.38461538  0.50000000  0.00000000       0.008
   0.37179487  0.50000000  0.00000000       0.008
   0.35897436  0.50000000  0.00000000       0.008
   0.34615385  0.50000000  0.00000000       0.008
   0.33333333  0.50000000  0.00000000       0.008
   0.32051282  0.50000000  0.00000000       0.008
   0.30769231  0.50000000  0.00000000       0.008
   0.29487179  0.50000000  0.00000000       0.008
   0.28205128  0.50000000  0.00000000       0.008
   0.26923077  0.50000000  0.00000000       0.008
   0.25641026  0.50000000  0.00000000       0.008
   0.24358974  0.50000000  0.00000000       0.008
   0.23076923  0.50000000  0.00000000       0.008
   0.21794872  0.50000000  0.00000000       0.008
   0.20512821  0.50000000  0.00000000       0.008
   0.19230769  0.50000000  0.00000000       0.008
   0.17948718  0.50000000  0.00000000       0.008
   0.16666667  0.50000000  0.00000000       0.008
   0.15384615  0.50000000  0.00000000       0.008
   0.14102564  0.50000000  0.00000000       0.008
   0.12820513  0.50000000  0.00000000       0.008
   0.11538462  0.50000000  0.00000000       0.008
   0.10256410  0.50000000  0.00000000       0.008
   0.08974359  0.50000000  0.00000000       0.008
   0.07692308  0.50000000  0.00000000       0.008
   0.06410256  0.50000000  0.00000000       0.008
   0.05128205  0.50000000  0.00000000       0.008
   0.03846154  0.50000000  0.00000000       0.008
   0.02564103  0.50000000  0.00000000       0.008
   0.01282051  0.50000000  0.00000000       0.008
   0.00000000  0.50000000  0.00000000       0.008
   0.00000000  0.50000000  0.00000000       0.008
   0.01282051  0.48717949  0.00000000       0.008
   0.02564103  0.47435897  0.00000000       0.008
   0.03846154  0.46153846  0.00000000       0.008
   0.05128205  0.44871795  0.00000000       0.008
   0.06410256  0.43589744  0.00000000       0.008
   0.07692308  0.42307692  0.00000000       0.008
   0.08974359  0.41025641  0.00000000       0.008
   0.10256410  0.39743590  0.00000000       0.008
   0.11538462  0.38461538  0.00000000       0.008
   0.12820513  0.37179487  0.00000000       0.008
   0.14102564  0.35897436  0.00000000       0.008
   0.15384615  0.34615385  0.00000000       0.008
   0.16666667  0.33333333  0.00000000       0.008
   0.17948718  0.32051282  0.00000000       0.008
   0.19230769  0.30769231  0.00000000       0.008
   0.20512821  0.29487179  0.00000000       0.008
   0.21794872  0.28205128  0.00000000       0.008
   0.23076923  0.26923077  0.00000000       0.008
   0.24358974  0.25641026  0.00000000       0.008
   0.25641026  0.24358974  0.00000000       0.008
   0.26923077  0.23076923  0.00000000       0.008
   0.28205128  0.21794872  0.00000000       0.008
   0.29487179  0.20512821  0.00000000       0.008
   0.30769231  0.19230769  0.00000000       0.008
   0.32051282  0.17948718  0.00000000       0.008
   0.33333333  0.16666667  0.00000000       0.008
   0.34615385  0.15384615  0.00000000       0.008
   0.35897436  0.14102564  0.00000000       0.008
   0.37179487  0.12820513  0.00000000       0.008
   0.38461538  0.11538462  0.00000000       0.008
   0.39743590  0.10256410  0.00000000       0.008
   0.41025641  0.08974359  0.00000000       0.008
   0.42307692  0.07692308  0.00000000       0.008
   0.43589744  0.06410256  0.00000000       0.008
   0.44871795  0.05128205  0.00000000       0.008
   0.46153846  0.03846154  0.00000000       0.008
   0.47435897  0.02564103  0.00000000       0.008
   0.48717949  0.01282051  0.00000000       0.008
   0.50000000  0.00000000  0.00000000       0.008
 
 position of ions in fractional coordinates (direct lattice) 
   0.99972635  0.00000783  0.00000000
   0.33324726  0.00000789  0.00000000
   0.49972635  0.03122317  0.00000000
   0.83324726  0.03122310  0.00000000
   0.99989858  0.06246133  0.00000000
   0.33301183  0.06245907  0.00000000
   0.49966823  0.09369861  0.00000000
   0.83324927  0.09370033  0.00000000
   0.99972692  0.12492436  0.00000000
   0.33326526  0.12492629  0.00000000
   0.49993855  0.15617451  0.00000000
   0.83312972  0.15617360  0.00000000
   0.99968157  0.18741802  0.00000000
   0.33345729  0.18742148  0.00000000
   0.49976508  0.21863473  0.00000000
   0.83340337  0.21863213  0.00000000
   0.99982960  0.24990082  0.00000000
   0.33333668  0.24990181  0.00000000
   0.49924169  0.28117075  0.00000000
   0.83390417  0.28116934  0.00000000
   0.00216473  0.31214964  0.00000000
   0.33091401  0.31214843  0.00000000
   0.50011866  0.34329153  0.00000000
   0.83287698  0.34329222  0.00000000
   0.00011866  0.68793945  0.00000000
   0.33287698  0.68793876  0.00000000
   0.50216473  0.71908037  0.00000000
   0.83091401  0.71908157  0.00000000
   0.99924169  0.75005929  0.00000000
   0.33390417  0.75006070  0.00000000
   0.49982960  0.78133017  0.00000000
   0.83333668  0.78132918  0.00000000
   0.99976508  0.81259525  0.00000000
   0.33340337  0.81259786  0.00000000
   0.49968157  0.84381198  0.00000000
   0.83345729  0.84380853  0.00000000
   0.99993855  0.87505551  0.00000000
   0.33312972  0.87505641  0.00000000
   0.49972692  0.90630566  0.00000000
   0.83326526  0.90630372  0.00000000
   0.99966823  0.93753236  0.00000000
   0.33324927  0.93753065  0.00000000
   0.49989858  0.96876969  0.00000000
   0.83301183  0.96877194  0.00000000
   0.92883304  0.37417703  0.00000000
   0.40408709  0.37417364  0.00000000
   0.42883310  0.65705395  0.00000000
   0.90408811  0.65705735  0.00000000
 
 position of ions in cartesian coordinates  (Angst):
   4.26503263  0.00030848  0.00000000
   1.42169948  0.00031111  0.00000000
   2.13193260  1.23048958  0.00000000
   3.55479951  1.23048695  0.00000000
   4.26576740  2.46156976  0.00000000
   1.42069508  2.46148088  0.00000000
   2.13168463  3.69261553  0.00000000
   3.55480809  3.69268326  0.00000000
   4.26503507  4.92320651  0.00000000
   1.42177628  4.92328284  0.00000000
   2.13283788  6.15475946  0.00000000
   3.55429807  6.15472366  0.00000000
   4.26484158  7.38605046  0.00000000
   1.42259550  7.38618671  0.00000000
   2.13209783  8.61628554  0.00000000
   3.55546553  8.61618281  0.00000000
   4.26547312  9.84846638  0.00000000
   1.42208095  9.84850538  0.00000000
   2.12986493 11.08079856  0.00000000
   3.55760202 11.08074295  0.00000000
   0.00923518 12.30166110  0.00000000
   1.41174537 12.30161368  0.00000000
   2.13360627 13.52894768  0.00000000
   3.55321984 13.52897492  0.00000000
   0.00050624 27.11134999  0.00000000
   1.42011981 27.11132275  0.00000000
   2.14233521 28.33859783  0.00000000
   3.54484540 28.33864525  0.00000000
   4.26296496 29.55946155  0.00000000
   1.42450198 29.55951716  0.00000000
   2.13237308 30.79183129  0.00000000
   3.55518098 30.79179229  0.00000000
   4.26519787 32.02397279  0.00000000
   1.42236549 32.02407553  0.00000000
   2.13174155 33.25420843  0.00000000
   3.55569553 33.25407218  0.00000000
   4.26593791 34.48550006  0.00000000
   1.42119804 34.48553586  0.00000000
   2.13193503 35.71705297  0.00000000
   3.55487632 35.71697665  0.00000000
   4.26478467 36.94768182  0.00000000
   1.42170806 36.94761409  0.00000000
   2.13266737 38.17872909  0.00000000
   3.55379512 38.17881797  0.00000000
   3.96258756 14.74612989  0.00000000
   1.72391639 14.74599599  0.00000000
   1.82948778 25.89416778  0.00000000
   3.85702074 25.89430168  0.00000000
 


--------------------------------------------------------------------------------------------------------


 k-point  1 :   0.0000 0.0000 0.0000  plane waves:   11583
 k-point  2 :   0.0128 0.0128 0.0000  plane waves:   11601
 k-point  3 :   0.0256 0.0256 0.0000  plane waves:   11603
 k-point  4 :   0.0385 0.0385 0.0000  plane waves:   11592
 k-point  5 :   0.0513 0.0513 0.0000  plane waves:   11588
 k-point  6 :   0.0641 0.0641 0.0000  plane waves:   11583
 k-point  7 :   0.0769 0.0769 0.0000  plane waves:   11580
 k-point  8 :   0.0897 0.0897 0.0000  plane waves:   11584
 k-point  9 :   0.1026 0.1026 0.0000  plane waves:   11584
 k-point 10 :   0.1154 0.1154 0.0000  plane waves:   11580
 k-point 11 :   0.1282 0.1282 0.0000  plane waves:   11574
 k-point 12 :   0.1410 0.1410 0.0000  plane waves:   11554
 k-point 13 :   0.1538 0.1538 0.0000  plane waves:   11544
 k-point 14 :   0.1667 0.1667 0.0000  plane waves:   11544
 k-point 15 :   0.1795 0.1795 0.0000  plane waves:   11548
 k-point 16 :   0.1923 0.1923 0.0000  plane waves:   11543
 k-point 17 :   0.2051 0.2051 0.0000  plane waves:   11543
 k-point 18 :   0.2179 0.2179 0.0000  plane waves:   11540
 k-point 19 :   0.2308 0.2308 0.0000  plane waves:   11530
 k-point 20 :   0.2436 0.2436 0.0000  plane waves:   11527
 k-point 21 :   0.2564 0.2564 0.0000  plane waves:   11517
 k-point 22 :   0.2692 0.2692 0.0000  plane waves:   11518
 k-point 23 :   0.2821 0.2821 0.0000  plane waves:   11512
 k-point 24 :   0.2949 0.2949 0.0000  plane waves:   11509
 k-point 25 :   0.3077 0.3077 0.0000  plane waves:   11505
 k-point 26 :   0.3205 0.3205 0.0000  plane waves:   11491
 k-point 27 :   0.3333 0.3333 0.0000  plane waves:   11480
 k-point 28 :   0.3462 0.3462 0.0000  plane waves:   11471
 k-point 29 :   0.3590 0.3590 0.0000  plane waves:   11462
 k-point 30 :   0.3718 0.3718 0.0000  plane waves:   11465
 k-point 31 :   0.3846 0.3846 0.0000  plane waves:   11468
 k-point 32 :   0.3974 0.3974 0.0000  plane waves:   11478
 k-point 33 :   0.4103 0.4103 0.0000  plane waves:   11479
 k-point 34 :   0.4231 0.4231 0.0000  plane waves:   11477
 k-point 35 :   0.4359 0.4359 0.0000  plane waves:   11479
 k-point 36 :   0.4487 0.4487 0.0000  plane waves:   11486
 k-point 37 :   0.4615 0.4615 0.0000  plane waves:   11480
 k-point 38 :   0.4744 0.4744 0.0000  plane waves:   11480
 k-point 39 :   0.4872 0.4872 0.0000  plane waves:   11486
 k-point 40 :   0.5000 0.5000 0.0000  plane waves:   11484
 k-point 41 :   0.5000 0.5000 0.0000  plane waves:   11484
 k-point 42 :   0.4872 0.5000 0.0000  plane waves:   11486
 k-point 43 :   0.4744 0.5000 0.0000  plane waves:   11476
 k-point 44 :   0.4615 0.5000 0.0000  plane waves:   11474
 k-point 45 :   0.4487 0.5000 0.0000  plane waves:   11494
 k-point 46 :   0.4359 0.5000 0.0000  plane waves:   11480
 k-point 47 :   0.4231 0.5000 0.0000  plane waves:   11472
 k-point 48 :   0.4103 0.5000 0.0000  plane waves:   11480
 k-point 49 :   0.3974 0.5000 0.0000  plane waves:   11472
 k-point 50 :   0.3846 0.5000 0.0000  plane waves:   11474
 k-point 51 :   0.3718 0.5000 0.0000  plane waves:   11466
 k-point 52 :   0.3590 0.5000 0.0000  plane waves:   11474
 k-point 53 :   0.3462 0.5000 0.0000  plane waves:   11472
 k-point 54 :   0.3333 0.5000 0.0000  plane waves:   11494
 k-point 55 :   0.3205 0.5000 0.0000  plane waves:   11494
 k-point 56 :   0.3077 0.5000 0.0000  plane waves:   11498
 k-point 57 :   0.2949 0.5000 0.0000  plane waves:   11506
 k-point 58 :   0.2821 0.5000 0.0000  plane waves:   11522
 k-point 59 :   0.2692 0.5000 0.0000  plane waves:   11512
 k-point 60 :   0.2564 0.5000 0.0000  plane waves:   11518
 k-point 61 :   0.2436 0.5000 0.0000  plane waves:   11534
 k-point 62 :   0.2308 0.5000 0.0000  plane waves:   11534
 k-point 63 :   0.2179 0.5000 0.0000  plane waves:   11532
 k-point 64 :   0.2051 0.5000 0.0000  plane waves:   11536
 k-point 65 :   0.1923 0.5000 0.0000  plane waves:   11534
 k-point 66 :   0.1795 0.5000 0.0000  plane waves:   11556
 k-point 67 :   0.1667 0.5000 0.0000  plane waves:   11560
 k-point 68 :   0.1538 0.5000 0.0000  plane waves:   11558
 k-point 69 :   0.1410 0.5000 0.0000  plane waves:   11558
 k-point 70 :   0.1282 0.5000 0.0000  plane waves:   11564
 k-point 71 :   0.1154 0.5000 0.0000  plane waves:   11556
 k-point 72 :   0.1026 0.5000 0.0000  plane waves:   11568
 k-point 73 :   0.0897 0.5000 0.0000  plane waves:   11586
 k-point 74 :   0.0769 0.5000 0.0000  plane waves:   11594
 k-point 75 :   0.0641 0.5000 0.0000  plane waves:   11582
 k-point 76 :   0.0513 0.5000 0.0000  plane waves:   11574
 k-point 77 :   0.0385 0.5000 0.0000  plane waves:   11580
 k-point 78 :   0.0256 0.5000 0.0000  plane waves:   11592
 k-point 79 :   0.0128 0.5000 0.0000  plane waves:   11604
 k-point 80 :   0.0000 0.5000 0.0000  plane waves:   11592
 k-point 81 :   0.0000 0.5000 0.0000  plane waves:   11592
 k-point 82 :   0.0128 0.4872 0.0000  plane waves:   11602
 k-point 83 :   0.0256 0.4744 0.0000  plane waves:   11593
 k-point 84 :   0.0385 0.4615 0.0000  plane waves:   11583
 k-point 85 :   0.0513 0.4487 0.0000  plane waves:   11581
 k-point 86 :   0.0641 0.4359 0.0000  plane waves:   11583
 k-point 87 :   0.0769 0.4231 0.0000  plane waves:   11591
 k-point 88 :   0.0897 0.4103 0.0000  plane waves:   11579
 k-point 89 :   0.1026 0.3974 0.0000  plane waves:   11573
 k-point 90 :   0.1154 0.3846 0.0000  plane waves:   11565
 k-point 91 :   0.1282 0.3718 0.0000  plane waves:   11558
 k-point 92 :   0.1410 0.3590 0.0000  plane waves:   11562
 k-point 93 :   0.1538 0.3462 0.0000  plane waves:   11552
 k-point 94 :   0.1667 0.3333 0.0000  plane waves:   11543
 k-point 95 :   0.1795 0.3205 0.0000  plane waves:   11543
 k-point 96 :   0.1923 0.3077 0.0000  plane waves:   11543
 k-point 97 :   0.2051 0.2949 0.0000  plane waves:   11544
 k-point 98 :   0.2179 0.2821 0.0000  plane waves:   11534
 k-point 99 :   0.2308 0.2692 0.0000  plane waves:   11531
 k-point ** :   0.2436 0.2564 0.0000  plane waves:   11526
 k-point ** :   0.2564 0.2436 0.0000  plane waves:   11519
 k-point ** :   0.2692 0.2308 0.0000  plane waves:   11517
 k-point ** :   0.2821 0.2179 0.0000  plane waves:   11506
 k-point ** :   0.2949 0.2051 0.0000  plane waves:   11510
 k-point ** :   0.3077 0.1923 0.0000  plane waves:   11508
 k-point ** :   0.3205 0.1795 0.0000  plane waves:   11507
 k-point ** :   0.3333 0.1667 0.0000  plane waves:   11496
 k-point ** :   0.3462 0.1538 0.0000  plane waves:   11468
 k-point ** :   0.3590 0.1410 0.0000  plane waves:   11450
 k-point ** :   0.3718 0.1282 0.0000  plane waves:   11468
 k-point ** :   0.3846 0.1154 0.0000  plane waves:   11475
 k-point ** :   0.3974 0.1026 0.0000  plane waves:   11473
 k-point ** :   0.4103 0.0897 0.0000  plane waves:   11478
 k-point ** :   0.4231 0.0769 0.0000  plane waves:   11480
 k-point ** :   0.4359 0.0641 0.0000  plane waves:   11488
 k-point ** :   0.4487 0.0513 0.0000  plane waves:   11484
 k-point ** :   0.4615 0.0385 0.0000  plane waves:   11488
 k-point ** :   0.4744 0.0256 0.0000  plane waves:   11491
 k-point ** :   0.4872 0.0128 0.0000  plane waves:   11499
 k-point ** :   0.5000 0.0000 0.0000  plane waves:   11488

 maximum and minimum number of plane-waves per node :      1170     1139

 maximum number of plane-waves:     11604
 maximum index in each direction: 
   IXMAX=    7   IYMAX=   68   IZMAX=    6
   IXMIN=   -7   IYMIN=  -68   IZMIN=   -6


 real space projection operators:
  total allocation   :       3813.69 KBytes
  max/ min on nodes  :        509.81        287.25


 parallel 3D FFT for wavefunctions:
    minimum data exchange during FFTs selected (reduces bandwidth)
 parallel 3D FFT for charge:
    minimum data exchange during FFTs selected (reduces bandwidth)


 total amount of memory used by VASP MPI-rank0   212785. kBytes
=======================================================================

   base      :      30000. kBytes
   nonlr-proj:       1717. kBytes
   fftplans  :       1313. kBytes
   grid      :       3454. kBytes
   one-center:         30. kBytes
   wavefun   :     176271. kBytes
 
     INWAV:  cpu time    0.0000: real time    0.0000
 initial charge density was supplied:
 number of electron     199.9999925 magnetization       2.3922946
 keeping initial charge density in first step


--------------------------------------------------------------------------------------------------------


 Maximum index for non-local projection operator          244
 Maximum index for augmentation-charges          288 (set IRDMAX)


--------------------------------------------------------------------------------------------------------


 First call to EWALD:  gamma=   0.218
 Maximum number of real-space cells 5x 1x 6
 Maximum number of reciprocal cells 2x11x 1

    FEWALD:  cpu time    0.0020: real time    0.0020


--------------------------------------- Iteration      1(   1)  ---------------------------------------


    POTLOK:  cpu time    0.0367: real time    0.0382
    SETDIJ:  cpu time    0.0075: real time    0.0078
    EDDIAG:  cpu time    7.2858: real time    7.3135
  RMM-DIIS:  cpu time    9.7981: real time    9.8466
    ORTHCH:  cpu time    1.1159: real time    1.1191
       DOS:  cpu time    0.0195: real time    0.0196
    --------------------------------------------
      LOOP:  cpu time   18.2634: real time   18.3449

 eigenvalue-minimisations  : 36480
 total energy-change (2. order) : 0.2109953E+04  (-0.6475594E+04)
 number of electron     199.9999925 magnetization       2.3922946
 augmentation part      199.9999925 magnetization       2.3922946

 Free energy of the ion-electron system (eV)
  ---------------------------------------------------
  alpha Z        PSCENC =       372.54520999
  Ewald energy   TEWEN  =     38165.18647767
  -Hartree energ DENC   =    -46378.82763434
  -exchange      EXHF   =         0.00000000
  -V(xc)+E(xc)   XCENC  =       720.76359215
  PAW double counting   =     20731.70950387   -20769.13943555
  entropy T*S    EENTRO =        -0.00767384
  eigenvalues    EBANDS =      1064.01048496
  atomic energy  EATOM  =      8203.71208324
  Solvation  Ediel_sol  =         0.00000000
  ---------------------------------------------------
  free energy    TOTEN  =      2109.95260817 eV

  energy without entropy =     2109.96028201  energy(sigma->0) =     2109.95644509


--------------------------------------------------------------------------------------------------------




--------------------------------------- Iteration      1(   2)  ---------------------------------------


    EDDIAG:  cpu time    7.2561: real time    7.2792
  RMM-DIIS:  cpu time    9.6898: real time    9.7208
    ORTHCH:  cpu time    1.1084: real time    1.1115
       DOS:  cpu time    0.0206: real time    0.0207
    --------------------------------------------
      LOOP:  cpu time   18.0749: real time   18.1322

 eigenvalue-minimisations  : 36480
 total energy-change (2. order) :-0.1659962E+04  (-0.1747902E+04)
 number of electron     199.9999925 magnetization       2.3922946
 augmentation part      199.9999925 magnetization       2.3922946

 Free energy of the ion-electron system (eV)
  ---------------------------------------------------
  alpha Z        PSCENC =       372.54520999
  Ewald energy   TEWEN  =     38165.18647767
  -Hartree energ DENC   =    -46378.82763434
  -exchange      EXHF   =         0.00000000
  -V(xc)+E(xc)   XCENC  =       720.76359215
  PAW double counting   =     20731.70950387   -20769.13943555
  entropy T*S    EENTRO =        -0.01019631
  eigenvalues    EBANDS =      -595.94896382
  atomic energy  EATOM  =      8203.71208324
  Solvation  Ediel_sol  =         0.00000000
  ---------------------------------------------------
  free energy    TOTEN  =       449.99063692 eV

  energy without entropy =      450.00083323  energy(sigma->0) =      449.99573507


--------------------------------------------------------------------------------------------------------




--------------------------------------- Iteration      1(   3)  ---------------------------------------


    EDDIAG:  cpu time    7.2285: real time    7.2500
  RMM-DIIS:  cpu time    9.7949: real time    9.8354
    ORTHCH:  cpu time    1.1124: real time    1.1158
       DOS:  cpu time    0.0208: real time    0.0209
    --------------------------------------------
      LOOP:  cpu time   18.1566: real time   18.2220

 eigenvalue-minimisations  : 36480
 total energy-change (2. order) :-0.5485978E+03  (-0.5248655E+03)
 number of electron     199.9999925 magnetization       2.3922946
 augmentation part      199.9999925 magnetization       2.3922946

 Free energy of the ion-electron system (eV)
  ---------------------------------------------------
  alpha Z        PSCENC =       372.54520999
  Ewald energy   TEWEN  =     38165.18647767
  -Hartree energ DENC   =    -46378.82763434
  -exchange      EXHF   =         0.00000000
  -V(xc)+E(xc)   XCENC  =       720.76359215
  PAW double counting   =     20731.70950387   -20769.13943555
  entropy T*S    EENTRO =        -0.01404605
  eigenvalues    EBANDS =     -1144.54291996
  atomic energy  EATOM  =      8203.71208324
  Solvation  Ediel_sol  =         0.00000000
  ---------------------------------------------------
  free energy    TOTEN  =       -98.60716896 eV

  energy without entropy =      -98.59312291  energy(sigma->0) =      -98.60014594


--------------------------------------------------------------------------------------------------------




--------------------------------------- Iteration      1(   4)  ---------------------------------------


    EDDIAG:  cpu time    7.2445: real time    7.2661
  RMM-DIIS:  cpu time    9.7034: real time    9.7336
    ORTHCH:  cpu time    1.1244: real time    1.1277
       DOS:  cpu time    0.0201: real time    0.0201
    --------------------------------------------
      LOOP:  cpu time   18.0924: real time   18.1475

 eigenvalue-minimisations  : 36480
 total energy-change (2. order) :-0.2124549E+03  (-0.1581881E+03)
 number of electron     199.9999925 magnetization       2.3922946
 augmentation part      199.9999925 magnetization       2.3922946

 Free energy of the ion-electron system (eV)
  ---------------------------------------------------
  alpha Z        PSCENC =       372.54520999
  Ewald energy   TEWEN  =     38165.18647767
  -Hartree energ DENC   =    -46378.82763434
  -exchange      EXHF   =         0.00000000
  -V(xc)+E(xc)   XCENC  =       720.76359215
  PAW double counting   =     20731.70950387   -20769.13943555
  entropy T*S    EENTRO =        -0.00763335
  eigenvalues    EBANDS =     -1357.00423704
  atomic energy  EATOM  =      8203.71208324
  Solvation  Ediel_sol  =         0.00000000
  ---------------------------------------------------
  free energy    TOTEN  =      -311.06207334 eV

  energy without entropy =     -311.05443999  energy(sigma->0) =     -311.05825667


--------------------------------------------------------------------------------------------------------




--------------------------------------- Iteration      1(   5)  ---------------------------------------


    EDDIAG:  cpu time    7.2762: real time    7.3132
  RMM-DIIS:  cpu time    9.7009: real time    9.7295
    ORTHCH:  cpu time    1.1075: real time    1.1111
       DOS:  cpu time    0.0206: real time    0.0206
    --------------------------------------------
      LOOP:  cpu time   18.1052: real time   18.1745

 eigenvalue-minimisations  : 36480
 total energy-change (2. order) :-0.5934092E+02  (-0.4922847E+02)
 number of electron     199.9999925 magnetization       2.3922946
 augmentation part      199.9999925 magnetization       2.3922946

 Free energy of the ion-electron system (eV)
  ---------------------------------------------------
  alpha Z        PSCENC =       372.54520999
  Ewald energy   TEWEN  =     38165.18647767
  -Hartree energ DENC   =    -46378.82763434
  -exchange      EXHF   =         0.00000000
  -V(xc)+E(xc)   XCENC  =       720.76359215
  PAW double counting   =     20731.70950387   -20769.13943555
  entropy T*S    EENTRO =        -0.00912860
  eigenvalues    EBANDS =     -1416.34366628
  atomic energy  EATOM  =      8203.71208324
  Solvation  Ediel_sol  =         0.00000000
  ---------------------------------------------------
  free energy    TOTEN  =      -370.40299783 eV

  energy without entropy =     -370.39386923  energy(sigma->0) =     -370.39843353


--------------------------------------------------------------------------------------------------------




--------------------------------------- Iteration      1(   6)  ---------------------------------------


    EDDIAG:  cpu time    7.2307: real time    7.2534
  RMM-DIIS:  cpu time    9.7082: real time    9.7800
    ORTHCH:  cpu time    1.1064: real time    1.1113
       DOS:  cpu time    0.0153: real time    0.0154
    --------------------------------------------
      LOOP:  cpu time   18.0605: real time   18.1600

 eigenvalue-minimisations  : 36480
 total energy-change (2. order) :-0.1973355E+02  (-0.1676371E+02)
 number of electron     199.9999925 magnetization       2.3922946
 augmentation part      199.9999925 magnetization       2.3922946

 Free energy of the ion-electron system (eV)
  ---------------------------------------------------
  alpha Z        PSCENC =       372.54520999
  Ewald energy   TEWEN  =     38165.18647767
  -Hartree energ DENC   =    -46378.82763434
  -exchange      EXHF   =         0.00000000
  -V(xc)+E(xc)   XCENC  =       720.76359215
  PAW double counting   =     20731.70950387   -20769.13943555
  entropy T*S    EENTRO =        -0.00687046
  eigenvalues    EBANDS =     -1436.07947907
  atomic energy  EATOM  =      8203.71208324
  Solvation  Ediel_sol  =         0.00000000
  ---------------------------------------------------
  free energy    TOTEN  =      -390.13655247 eV

  energy without entropy =     -390.12968201  energy(sigma->0) =     -390.13311724


--------------------------------------------------------------------------------------------------------




--------------------------------------- Iteration      1(   7)  ---------------------------------------


    EDDIAG:  cpu time    7.2386: real time    7.2599
  RMM-DIIS:  cpu time    9.6888: real time    9.7189
    ORTHCH:  cpu time    1.1139: real time    1.1174
       DOS:  cpu time    0.0208: real time    0.0208
    --------------------------------------------
      LOOP:  cpu time   18.0620: real time   18.1170

 eigenvalue-minimisations  : 36480
 total energy-change (2. order) :-0.6690315E+01  (-0.6139005E+01)
 number of electron     199.9999925 magnetization       2.3922946
 augmentation part      199.9999925 magnetization       2.3922946

 Free energy of the ion-electron system (eV)
  ---------------------------------------------------
  alpha Z        PSCENC =       372.54520999
  Ewald energy   TEWEN  =     38165.18647767
  -Hartree energ DENC   =    -46378.82763434
  -exchange      EXHF   =         0.00000000
  -V(xc)+E(xc)   XCENC  =       720.76359215
  PAW double counting   =     20731.70950387   -20769.13943555
  entropy T*S    EENTRO =        -0.00691156
  eigenvalues    EBANDS =     -1442.76975297
  atomic energy  EATOM  =      8203.71208324
  Solvation  Ediel_sol  =         0.00000000
  ---------------------------------------------------
  free energy    TOTEN  =      -396.82686748 eV

  energy without entropy =     -396.81995592  energy(sigma->0) =     -396.82341170


--------------------------------------------------------------------------------------------------------




--------------------------------------- Iteration      1(   8)  ---------------------------------------


    EDDIAG:  cpu time    7.2481: real time    7.2693
  RMM-DIIS:  cpu time    9.7065: real time    9.7453
    ORTHCH:  cpu time    1.1091: real time    1.1124
       DOS:  cpu time    0.0205: real time    0.0206
    --------------------------------------------
      LOOP:  cpu time   18.0842: real time   18.1476

 eigenvalue-minimisations  : 36480
 total energy-change (2. order) :-0.2550825E+01  (-0.2347025E+01)
 number of electron     199.9999925 magnetization       2.3922946
 augmentation part      199.9999925 magnetization       2.3922946

 Free energy of the ion-electron system (eV)
  ---------------------------------------------------
  alpha Z        PSCENC =       372.54520999
  Ewald energy   TEWEN  =     38165.18647767
  -Hartree energ DENC   =    -46378.82763434
  -exchange      EXHF   =         0.00000000
  -V(xc)+E(xc)   XCENC  =       720.76359215
  PAW double counting   =     20731.70950387   -20769.13943555
  entropy T*S    EENTRO =        -0.00800637
  eigenvalues    EBANDS =     -1445.31948335
  atomic energy  EATOM  =      8203.71208324
  Solvation  Ediel_sol  =         0.00000000
  ---------------------------------------------------
  free energy    TOTEN  =      -399.37769267 eV

  energy without entropy =     -399.36968630  energy(sigma->0) =     -399.37368948


--------------------------------------------------------------------------------------------------------




--------------------------------------- Iteration      1(   9)  ---------------------------------------


    EDDIAG:  cpu time    7.2385: real time    7.2598
  RMM-DIIS:  cpu time   23.6593: real time   23.7532
    ORTHCH:  cpu time    1.1054: real time    1.1087
       DOS:  cpu time    0.0207: real time    0.0207
    --------------------------------------------
      LOOP:  cpu time   32.0239: real time   32.1425

 eigenvalue-minimisations  :100863
 total energy-change (2. order) :-0.1546812E+01  (-0.1500758E+01)
 number of electron     199.9999925 magnetization       2.3922946
 augmentation part      199.9999925 magnetization       2.3922946

 Free energy of the ion-electron system (eV)
  ---------------------------------------------------
  alpha Z        PSCENC =       372.54520999
  Ewald energy   TEWEN  =     38165.18647767
  -Hartree energ DENC   =    -46378.82763434
  -exchange      EXHF   =         0.00000000
  -V(xc)+E(xc)   XCENC  =       720.76359215
  PAW double counting   =     20731.70950387   -20769.13943555
  entropy T*S    EENTRO =        -0.01021263
  eigenvalues    EBANDS =     -1446.86408894
  atomic energy  EATOM  =      8203.71208324
  Solvation  Ediel_sol  =         0.00000000
  ---------------------------------------------------
  free energy    TOTEN  =      -400.92450452 eV

  energy without entropy =     -400.91429189  energy(sigma->0) =     -400.91939821


--------------------------------------------------------------------------------------------------------




--------------------------------------- Iteration      1(  10)  ---------------------------------------


    EDDIAG:  cpu time    7.2356: real time    7.2583
  RMM-DIIS:  cpu time   25.5995: real time   25.7287
    ORTHCH:  cpu time    1.1135: real time    1.1168
       DOS:  cpu time    0.0206: real time    0.0207
    --------------------------------------------
      LOOP:  cpu time   33.9692: real time   34.1245

 eigenvalue-minimisations  :110381
 total energy-change (2. order) :-0.1410449E+00  (-0.1187690E+00)
 number of electron     199.9999925 magnetization       2.3922946
 augmentation part      199.9999925 magnetization       2.3922946

 Free energy of the ion-electron system (eV)
  ---------------------------------------------------
  alpha Z        PSCENC =       372.54520999
  Ewald energy   TEWEN  =     38165.18647767
  -Hartree energ DENC   =    -46378.82763434
  -exchange      EXHF   =         0.00000000
  -V(xc)+E(xc)   XCENC  =       720.76359215
  PAW double counting   =     20731.70950387   -20769.13943555
  entropy T*S    EENTRO =        -0.01095150
  eigenvalues    EBANDS =     -1447.00439503
  atomic energy  EATOM  =      8203.71208324
  Solvation  Ediel_sol  =         0.00000000
  ---------------------------------------------------
  free energy    TOTEN  =      -401.06554947 eV

  energy without entropy =     -401.05459798  energy(sigma->0) =     -401.06007372


--------------------------------------------------------------------------------------------------------




--------------------------------------- Iteration      1(  11)  ---------------------------------------


    EDDIAG:  cpu time    7.2309: real time    7.2538
  RMM-DIIS:  cpu time   23.6323: real time   23.7209
    ORTHCH:  cpu time    1.1171: real time    1.1217
       DOS:  cpu time    0.0209: real time    0.0209
    --------------------------------------------
      LOOP:  cpu time   32.0012: real time   32.1173

 eigenvalue-minimisations  :100612
 total energy-change (2. order) :-0.3338273E-02  (-0.3192336E-02)
 number of electron     199.9999925 magnetization       2.3922946
 augmentation part      199.9999925 magnetization       2.3922946

 Free energy of the ion-electron system (eV)
  ---------------------------------------------------
  alpha Z        PSCENC =       372.54520999
  Ewald energy   TEWEN  =     38165.18647767
  -Hartree energ DENC   =    -46378.82763434
  -exchange      EXHF   =         0.00000000
  -V(xc)+E(xc)   XCENC  =       720.76359215
  PAW double counting   =     20731.70950387   -20769.13943555
  entropy T*S    EENTRO =        -0.01094189
  eigenvalues    EBANDS =     -1447.00774290
  atomic energy  EATOM  =      8203.71208324
  Solvation  Ediel_sol  =         0.00000000
  ---------------------------------------------------
  free energy    TOTEN  =      -401.06888775 eV

  energy without entropy =     -401.05794585  energy(sigma->0) =     -401.06341680


--------------------------------------------------------------------------------------------------------




--------------------------------------- Iteration      1(  12)  ---------------------------------------


    EDDIAG:  cpu time    7.2292: real time    7.2508
  RMM-DIIS:  cpu time   19.7349: real time   19.7992
    ORTHCH:  cpu time    1.1101: real time    1.1137
       DOS:  cpu time    0.0205: real time    0.0205
    --------------------------------------------
      LOOP:  cpu time   28.0947: real time   28.1842

 eigenvalue-minimisations  : 81836
 total energy-change (2. order) :-0.5919278E-03  (-0.5654540E-03)
 number of electron     199.9999925 magnetization       2.3922946
 augmentation part      199.9999925 magnetization       2.3922946

 Free energy of the ion-electron system (eV)
  ---------------------------------------------------
  alpha Z        PSCENC =       372.54520999
  Ewald energy   TEWEN  =     38165.18647767
  -Hartree energ DENC   =    -46378.82763434
  -exchange      EXHF   =         0.00000000
  -V(xc)+E(xc)   XCENC  =       720.76359215
  PAW double counting   =     20731.70950387   -20769.13943555
  entropy T*S    EENTRO =        -0.01094052
  eigenvalues    EBANDS =     -1447.00833621
  atomic energy  EATOM  =      8203.71208324
  Solvation  Ediel_sol  =         0.00000000
  ---------------------------------------------------
  free energy    TOTEN  =      -401.06947967 eV

  energy without entropy =     -401.05853916  energy(sigma->0) =     -401.06400942


--------------------------------------------------------------------------------------------------------




--------------------------------------- Iteration      1(  13)  ---------------------------------------


    EDDIAG:  cpu time    7.2277: real time    7.2506
  RMM-DIIS:  cpu time   17.0045: real time   17.1630
    ORTHCH:  cpu time    1.1095: real time    1.1128
       DOS:  cpu time    0.0210: real time    0.0210
    --------------------------------------------
      LOOP:  cpu time   25.3628: real time   25.5475

 eigenvalue-minimisations  : 67546
 total energy-change (2. order) :-0.1409028E-04  (-0.1319118E-04)
 number of electron     199.9999925 magnetization       2.3922946
 augmentation part      199.9999925 magnetization       2.3922946

 Free energy of the ion-electron system (eV)
  ---------------------------------------------------
  alpha Z        PSCENC =       372.54520999
  Ewald energy   TEWEN  =     38165.18647767
  -Hartree energ DENC   =    -46378.82763434
  -exchange      EXHF   =         0.00000000
  -V(xc)+E(xc)   XCENC  =       720.76359215
  PAW double counting   =     20731.70950387   -20769.13943555
  entropy T*S    EENTRO =        -0.01094044
  eigenvalues    EBANDS =     -1447.00835037
  atomic energy  EATOM  =      8203.71208324
  Solvation  Ediel_sol  =         0.00000000
  ---------------------------------------------------
  free energy    TOTEN  =      -401.06949376 eV

  energy without entropy =     -401.05855332  energy(sigma->0) =     -401.06402354


--------------------------------------------------------------------------------------------------------




 average (electrostatic) potential at core
  the test charge radii are     0.6991  0.7215
  (the norm of the test charge is              1.0000)
       1 -53.6311       2 -53.6311       3 -53.6318       4 -53.6318       5 -53.6082
       6 -53.6080       7 -53.6192       8 -53.6192       9 -53.6177      10 -53.6181
      11 -53.5897      12 -53.5893      13 -53.5743      14 -53.5741      15 -53.5700
      16 -53.5702      17 -53.5742      18 -53.5741      19 -53.5412      20 -53.5408
      21 -53.4898      22 -53.4895      23 -54.4360      24 -54.4372      25 -54.4439
      26 -54.4451      27 -53.4970      28 -53.4967      29 -53.5454      30 -53.5450
      31 -53.5779      32 -53.5777      33 -53.5731      34 -53.5734      35 -53.5749
      36 -53.5743      37 -53.5883      38 -53.5880      39 -53.6143      40 -53.6153
      41 -53.6156      42 -53.6154      43 -53.6060      44 -53.6058      45 -74.4459
      46 -74.4457      47 -74.4521      48 -74.4519
 
 
 
 E-fermi :   1.9759     XC(G=0):  -8.3094     alpha+bet : -8.8053


 spin component 1

 k-point     1 :       0.0000    0.0000    0.0000
  band No.  band energies     occupation 
      1     -21.1858      1.00000
      2     -21.1791      1.00000
      3     -18.5863      1.00000
      4     -18.5796      1.00000
      5     -17.9348      1.00000
      6     -17.7980      1.00000
      7     -17.6098      1.00000
      8     -17.3505      1.00000
      9     -17.0184      1.00000
     10     -16.6125      1.00000
     11     -16.1439      1.00000
     12     -15.5995      1.00000
     13     -14.9951      1.00000
     14     -14.3318      1.00000
     15     -13.6177      1.00000
     16     -12.8644      1.00000
     17     -12.3763      1.00000
     18     -12.2625      1.00000
     19     -12.1115      1.00000
     20     -12.0964      1.00000
     21     -11.9008      1.00000
     22     -11.6279      1.00000
     23     -11.3956      1.00000
     24     -11.3538      1.00000
     25     -11.2902      1.00000
     26     -11.2896      1.00000
     27     -11.1811      1.00000
     28     -11.0735      1.00000
     29     -10.8962      1.00000
     30     -10.8754      1.00000
     31     -10.7954      1.00000
     32     -10.6789      1.00000
     33     -10.5984      1.00000
     34     -10.4302      1.00000
     35      -9.9110      1.00000
     36      -9.3350      1.00000
     37      -8.7062      1.00000
     38      -8.7033      1.00000
     39      -8.6330      1.00000
     40      -8.3319      1.00000
     41      -8.2862      1.00000
     42      -8.0274      1.00000
     43      -7.8320      1.00000
     44      -7.6553      1.00000
     45      -7.3045      1.00000
     46      -7.3010      1.00000
     47      -6.8895      1.00000
     48      -6.6973      1.00000
     49      -6.5451      1.00000
     50      -6.2089      1.00000
     51      -5.9921      1.00000
     52      -5.7713      1.00000
     53      -5.5972      1.00000
     54      -5.3063      1.00000
     55      -5.0463      1.00000
     56      -4.9903      1.00000
     57      -4.7987      1.00000
     58      -4.5729      1.00000
     59      -4.5113      1.00000
     60      -4.4979      1.00000
     61      -4.3790      1.00000
     62      -4.2625      1.00000
     63      -4.2178      1.00000
     64      -4.1768      1.00000
     65      -3.9123      1.00000
     66      -3.7587      1.00000
     67      -3.6438      1.00000
     68      -3.5799      1.00000
     69      -3.2068      1.00000
     70      -3.1850      1.00000
     71      -3.1522      1.00000
     72      -2.7257      1.00000
     73      -2.6841      1.00000
     74      -2.6445      1.00000
     75      -2.2215      1.00000
     76      -2.1659      1.00000
     77      -2.1346      1.00000
     78      -2.0865      1.00000
     79      -2.0774      1.00000
     80      -1.6963      1.00000
     81      -1.6694      1.00000
     82      -1.6622      1.00000
     83      -1.3834      1.00000
     84      -1.3295      1.00000
     85      -1.1156      1.00000
     86      -1.0917      1.00000
     87      -1.0631      1.00000
     88      -1.0272      1.00000
     89      -0.8545      1.00000
     90      -0.6071      1.00000
     91      -0.4336      1.00000
     92      -0.2735      1.00000
     93       0.1423      1.00000
     94       0.2092      1.00000
     95       0.6386      1.00000
     96       0.8439      1.00000
     97       1.1989      1.00000
     98       1.3946      1.00000
     99       1.4009      1.00000
    100       1.4425      1.00000
    101       1.8460      0.99988
    102       1.9728      0.53515
    103       2.3962      0.00000
    104       2.5497      0.00000
    105       2.7043      0.00000
    106       2.8997      0.00000
    107       2.9802      0.00000
    108       3.0137      0.00000
    109       3.0215      0.00000
    110       3.2524      0.00000
    111       3.2589      0.00000
    112       3.3151      0.00000
    113       4.1365      0.00000
    114       5.0093      0.00000
    115       5.9246      0.00000
    116       6.5815      0.00000
    117       6.6967      0.00000
    118       6.8390      0.00000
    119       6.8719      0.00000
    120       7.0393      0.00000
    121       7.2982      0.00000
    122       7.6099      0.00000
    123       7.8392      0.00000
    124       7.9497      0.00000
    125       8.3390      0.00000
    126       8.6733      0.00000
    127       8.8234      0.00000
    128       9.1123      0.00000
    129       9.1839      0.00000
    130       9.2334      0.00000
    131       9.6965      0.00000
    132       9.7615      0.00000
    133       9.8457      0.00000
    134      10.2267      0.00000
    135      10.2537      0.00000
    136      10.3209      0.00000
    137      10.4291      0.00000
    138      10.4386      0.00000
    139      10.5099      0.00000
    140      10.5724      0.00000
    141      10.6472      0.00000
    142      10.9511      0.00000
    143      11.1440      0.00000
    144      11.1664      0.00000
    145      11.2788      0.00000
    146      11.3590      0.00000
    147      11.5430      0.00000
    148      12.0589      0.00000
    149      12.3790      0.00000
    150      12.5163      0.00000
    151      12.7315      0.00000
    152      13.0710      0.00000

 k-point     2 :       0.0128    0.0128    0.0000
  band No.  band energies     occupation 
      1     -21.1851      1.00000
      2     -21.1784      1.00000
      3     -18.5877      1.00000
      4     -18.5811      1.00000
      5     -17.9337      1.00000
      6     -17.7970      1.00000
      7     -17.6088      1.00000
      8     -17.3495      1.00000
      9     -17.0174      1.00000
     10     -16.6115      1.00000
     11     -16.1429      1.00000
     12     -15.5985      1.00000
     13     -14.9941      1.00000
     14     -14.3308      1.00000
     15     -13.6167      1.00000
     16     -12.8635      1.00000
     17     -12.3958      1.00000
     18     -12.2820      1.00000
     19     -12.1311      1.00000
     20     -12.0957      1.00000
     21     -11.9209      1.00000
     22     -11.6493      1.00000
     23     -11.3902      1.00000
     24     -11.3370      1.00000
     25     -11.3193      1.00000
     26     -11.2647      1.00000
     27     -11.1652      1.00000
     28     -11.0554      1.00000
     29     -10.9357      1.00000
     30     -10.8378      1.00000
     31     -10.7988      1.00000
     32     -10.6577      1.00000
     33     -10.5745      1.00000
     34     -10.4265      1.00000
     35      -9.9176      1.00000
     36      -9.3438      1.00000
     37      -8.7189      1.00000
     38      -8.6973      1.00000
     39      -8.6213      1.00000
     40      -8.3285      1.00000
     41      -8.2796      1.00000
     42      -8.0338      1.00000
     43      -7.8243      1.00000
     44      -7.6533      1.00000
     45      -7.3115      1.00000
     46      -7.2933      1.00000
     47      -6.8868      1.00000
     48      -6.6911      1.00000
     49      -6.5521      1.00000
     50      -6.2040      1.00000
     51      -5.9889      1.00000
     52      -5.7781      1.00000
     53      -5.5924      1.00000
     54      -5.3039      1.00000
     55      -5.0435      1.00000
     56      -4.9960      1.00000
     57      -4.7967      1.00000
     58      -4.5700      1.00000
     59      -4.5109      1.00000
     60      -4.4974      1.00000
     61      -4.3785      1.00000
     62      -4.2679      1.00000
     63      -4.2147      1.00000
     64      -4.1764      1.00000
     65      -3.9119      1.00000
     66      -3.7554      1.00000
     67      -3.6481      1.00000
     68      -3.5795      1.00000
     69      -3.2044      1.00000
     70      -3.1845      1.00000
     71      -3.1555      1.00000
     72      -2.7254      1.00000
     73      -2.6871      1.00000
     74      -2.6435      1.00000
     75      -2.2215      1.00000
     76      -2.1688      1.00000
     77      -2.1349      1.00000
     78      -2.0878      1.00000
     79      -2.0783      1.00000
     80      -1.6975      1.00000
     81      -1.6721      1.00000
     82      -1.6617      1.00000
     83      -1.3855      1.00000
     84      -1.3318      1.00000
     85      -1.1179      1.00000
     86      -1.0945      1.00000
     87      -1.0628      1.00000
     88      -1.0318      1.00000
     89      -0.8592      1.00000
     90      -0.6120      1.00000
     91      -0.4336      1.00000
     92      -0.2787      1.00000
     93       0.1364      1.00000
     94       0.2086      1.00000
     95       0.6317      1.00000
     96       0.8417      1.00000
     97       1.1885      1.00000
     98       1.3931      1.00000
     99       1.3994      1.00000
    100       1.4319      1.00000
    101       1.8501      0.99981
    102       1.9775      0.48242
    103       2.4058      0.00000
    104       2.5499      0.00000
    105       2.7144      0.00000
    106       2.9065      0.00000
    107       2.9872      0.00000
    108       3.0207      0.00000
    109       3.0284      0.00000
    110       3.2509      0.00000
    111       3.2626      0.00000
    112       3.3263      0.00000
    113       4.1367      0.00000
    114       5.0083      0.00000
    115       5.9230      0.00000
    116       6.5838      0.00000
    117       6.6990      0.00000
    118       6.8411      0.00000
    119       6.8703      0.00000
    120       7.0414      0.00000
    121       7.3003      0.00000
    122       7.6119      0.00000
    123       7.8374      0.00000
    124       7.9516      0.00000
    125       8.3405      0.00000
    126       8.6746      0.00000
    127       8.8224      0.00000
    128       9.1126      0.00000
    129       9.1858      0.00000
    130       9.2379      0.00000
    131       9.7032      0.00000
    132       9.7585      0.00000
    133       9.8501      0.00000
    134      10.2337      0.00000
    135      10.2747      0.00000
    136      10.3114      0.00000
    137      10.3949      0.00000
    138      10.4528      0.00000
    139      10.5594      0.00000
    140      10.5893      0.00000
    141      10.7497      0.00000
    142      10.9256      0.00000
    143      11.1628      0.00000
    144      11.1431      0.00000
    145      11.2150      0.00000
    146      11.2684      0.00000
    147      11.5938      0.00000
    148      12.1252      0.00000
    149      12.3388      0.00000
    150      12.6012      0.00000
    151      12.7500      0.00000
    152      12.8373      0.00000

 k-point     3 :       0.0256    0.0256    0.0000
[...]
     65      -4.2572      1.00000
     66      -4.2559      1.00000
     67      -3.8788      1.00000
     68      -3.8779      1.00000
     69      -3.7842      1.00000
     70      -3.7786      1.00000
     71      -3.5270      1.00000
     72      -3.5247      1.00000
     73      -3.5015      1.00000
     74      -3.5012      1.00000
     75      -3.3719      1.00000
     76      -3.3697      1.00000
     77      -3.3196      1.00000
     78      -3.3177      1.00000
     79      -3.1810      1.00000
     80      -3.1801      1.00000
     81      -2.9207      1.00000
     82      -2.9201      1.00000
     83      -2.5960      1.00000
     84      -2.5952      1.00000
     85      -2.2175      1.00000
     86      -2.2170      1.00000
     87      -1.7869      1.00000
     88      -1.7864      1.00000
     89      -1.3324      1.00000
     90      -1.3319      1.00000
     91      -0.8682      1.00000
     92      -0.8681      1.00000
     93      -0.4519      1.00000
     94      -0.4500      1.00000
     95      -0.3292      1.00000
     96      -0.3230      1.00000
     97      -0.1754      1.00000
     98      -0.1739      1.00000
     99       1.9524      0.74724
    100       1.9589      0.68445
    101       2.1030      0.00016
    102       2.1092      0.00008
    103       4.0453      0.00000
    104       4.0454      0.00000
    105       4.5503      0.00000
    106       4.5511      0.00000
    107       5.1868      0.00000
    108       5.1871      0.00000
    109       5.8766      0.00000
    110       5.8768      0.00000
    111       6.5547      0.00000
    112       6.5549      0.00000
    113       7.1776      0.00000
    114       7.1777      0.00000
    115       7.6969      0.00000
    116       7.6970      0.00000
    117       8.0941      0.00000
    118       8.0943      0.00000
    119       8.3595      0.00000
    120       8.3599      0.00000
    121       8.5223      0.00000
    122       8.5225      0.00000
    123       8.5731      0.00000
    124       8.5743      0.00000
    125       9.2646      0.00000
    126       9.2699      0.00000
    127       9.5547      0.00000
    128       9.5584      0.00000
    129       9.5947      0.00000
    130       9.5959      0.00000
    131       9.7572      0.00000
    132       9.7603      0.00000
    133       9.8571      0.00000
    134       9.8615      0.00000
    135      10.0250      0.00000
    136      10.0372      0.00000
    137      10.1214      0.00000
    138      10.1315      0.00000
    139      10.1796      0.00000
    140      10.2231      0.00000
    141      10.3138      0.00000
    142      10.3319      0.00000
    143      10.4362      0.00000
    144      10.5071      0.00000
    145      10.5920      0.00000
    146      10.6114      0.00000
    147      10.8241      0.00000
    148      10.9996      0.00000
    149      11.1443      0.00000
    150      11.3491      0.00000
    151      11.8853      0.00000
    152      12.1323      0.00000


--------------------------------------------------------------------------------------------------------


 soft charge-density along one line, spin component           1
         0         1         2         3         4         5         6         7         8         9
 total charge-density along one line
 
 soft charge-density along one line, spin component           2
         0         1         2         3         4         5         6         7         8         9
 total charge-density along one line
 
 pseudopotential strength for first ion, spin component:           1
  9.941  13.214   0.000   0.000   0.000  -0.000  -0.000  -0.000
 13.214  17.563   0.000   0.000   0.000  -0.000  -0.000  -0.000
  0.000   0.000  -4.104  -0.000   0.000   8.028   0.000  -0.000
  0.000   0.000  -0.000  -4.096  -0.000   0.000   8.018   0.000
  0.000   0.000   0.000  -0.000  -4.104  -0.000   0.000   8.028
 -0.000  -0.000   8.028   0.000  -0.000 -17.826  -0.000   0.000
 -0.000  -0.000   0.000   8.018   0.000  -0.000 -17.816  -0.000
 -0.000  -0.000  -0.000   0.000   8.028   0.000  -0.000 -17.826
 pseudopotential strength for first ion, spin component:           2
  9.941  13.214   0.000   0.000   0.000  -0.000  -0.000  -0.000
 13.214  17.563   0.000   0.000   0.000  -0.000  -0.000  -0.000
  0.000   0.000  -4.104  -0.000   0.000   8.028   0.000  -0.000
  0.000   0.000  -0.000  -4.096  -0.000   0.000   8.018   0.000
  0.000   0.000   0.000  -0.000  -4.104  -0.000   0.000   8.028
 -0.000  -0.000   8.028   0.000  -0.000 -17.825  -0.000   0.000
 -0.000  -0.000   0.000   8.018   0.000  -0.000 -17.817  -0.000
 -0.000  -0.000  -0.000   0.000   8.028   0.000  -0.000 -17.825
 total augmentation occupancy for first ion, spin component:           1
  8.231  -3.681   0.003  -0.002  -0.005   0.000  -0.000  -0.001
 -3.681   1.706  -0.002   0.004   0.002  -0.000   0.000   0.000
  0.003  -0.002   1.818  -0.000  -0.001   0.168  -0.000  -0.000
 -0.002   0.004  -0.000   1.275  -0.021  -0.000   0.071   0.000
 -0.005   0.002  -0.001  -0.021   1.829  -0.000   0.000   0.168
  0.000  -0.000   0.168  -0.000  -0.000   0.017  -0.000  -0.000
 -0.000   0.000  -0.000   0.071   0.000  -0.000   0.004   0.000
 -0.001   0.000  -0.000   0.000   0.168  -0.000   0.000   0.017
 total augmentation occupancy for first ion, spin component:           2
 -0.000  -0.000  -0.000   0.000  -0.000  -0.000   0.000  -0.000
 -0.000   0.000   0.000   0.000   0.000   0.000  -0.000   0.000
 -0.000   0.000   0.000   0.000  -0.000  -0.000   0.000   0.000
  0.000   0.000   0.000   0.002  -0.000   0.000   0.000  -0.000
 -0.000   0.000  -0.000  -0.000   0.000   0.000  -0.000  -0.000
 -0.000   0.000  -0.000   0.000   0.000  -0.000  -0.000   0.000
  0.000  -0.000   0.000   0.000  -0.000  -0.000   0.000   0.000
 -0.000   0.000   0.000  -0.000  -0.000   0.000   0.000  -0.000


------------------------ aborting loop because EDIFF is reached ----------------------------------------


    CHARGE:  cpu time    1.3548: real time    1.3587
    FORLOC:  cpu time    0.0045: real time    0.0045
    FORNL :  cpu time    7.3822: real time    7.4054
    FORCOR:  cpu time    0.0397: real time    0.0399
    FORHAR:  cpu time    0.0076: real time    0.0076
    OFIELD:  cpu time    0.0001: real time    0.0001

  Number of pair interactions contributing to vdW energy: 1155973
  Edisp (eV):   -6.02654
    FORVDW:  cpu time    0.1119: real time    0.1122

 VOLUME and BASIS-vectors are now :
 -----------------------------------------------------------------------------
  energy-cutoff  :      450.00
  volume of cell :      534.83
      direct lattice vectors                 reciprocal lattice vectors
     4.266200066  0.000000000  0.000000000     0.234400634  0.000000000  0.104785421
     0.000000000 39.409500122  0.000000000     0.000000000  0.025374592  0.000000000
    -1.422064714  0.000000000  3.181099698     0.000000000  0.000000000  0.314356699

  length of vectors
     4.266200066 39.409500122  3.484488964     0.256755996  0.025374592  0.314356699


 FORCES acting on ions
    electron-ion (+dipol)            ewald-force                    non-local-force                 convergence-correction
 -----------------------------------------------------------------------------------------------
   -.527E+00 0.471E+02 0.142E+00   0.349E+00 -.470E+02 -.208E+00   0.451E-01 0.100E-01 -.224E+00   0.488E-01 -.200E+00 0.116E-01
   0.527E+00 0.471E+02 -.142E+00   -.347E+00 -.470E+02 0.207E+00   -.501E-01 0.748E-02 0.223E+00   -.498E-01 -.198E+00 -.116E-01
   -.527E+00 -.471E+02 0.142E+00   0.349E+00 0.470E+02 -.208E+00   0.451E-01 -.100E-01 -.224E+00   0.489E-01 0.200E+00 0.116E-01
   0.527E+00 -.471E+02 -.142E+00   -.347E+00 0.470E+02 0.207E+00   -.501E-01 -.748E-02 0.223E+00   -.498E-01 0.199E+00 -.117E-01
   -.296E-01 -.141E+03 0.157E+00   -.160E+00 0.140E+03 -.218E+00   -.164E-02 -.214E-01 -.228E+00   0.594E-01 0.640E+00 0.111E-01
   0.257E-01 -.141E+03 -.157E+00   0.162E+00 0.140E+03 0.218E+00   0.471E-02 -.194E-01 0.228E+00   -.577E-01 0.639E+00 -.110E-01
   -.620E+00 -.235E+03 0.133E+00   0.351E+00 0.234E+03 -.207E+00   0.479E-01 -.664E-02 -.223E+00   0.125E+00 0.873E+00 0.188E-01
   0.627E+00 -.235E+03 -.133E+00   -.361E+00 0.234E+03 0.207E+00   -.425E-01 -.968E-02 0.223E+00   -.124E+00 0.877E+00 -.187E-01
   -.356E+00 -.329E+03 0.152E+00   0.280E+00 0.327E+03 -.208E+00   0.442E-01 -.225E-01 -.220E+00   -.329E-01 0.127E+01 0.459E-02
   0.349E+00 -.329E+03 -.152E+00   -.269E+00 0.328E+03 0.209E+00   -.428E-01 -.246E-01 0.220E+00   0.300E-01 0.127E+01 -.477E-02
   -.929E-02 -.422E+03 0.158E+00   -.180E+00 0.421E+03 -.219E+00   0.120E-01 -.531E-01 -.228E+00   0.623E-01 0.177E+01 0.107E-01
   0.152E-01 -.422E+03 -.158E+00   0.172E+00 0.421E+03 0.219E+00   -.135E-01 -.508E-01 0.227E+00   -.609E-01 0.177E+01 -.106E-01
   -.914E+00 -.516E+03 0.122E+00   0.549E+00 0.514E+03 -.205E+00   0.334E-01 -.266E-01 -.212E+00   0.197E+00 0.171E+01 0.261E-01
   0.910E+00 -.516E+03 -.122E+00   -.547E+00 0.514E+03 0.205E+00   -.369E-01 -.306E-01 0.213E+00   -.196E+00 0.172E+01 -.260E-01
   -.243E+00 -.610E+03 0.158E+00   0.337E+00 0.608E+03 -.207E+00   0.338E-01 0.180E-02 -.212E+00   -.126E+00 0.202E+01 -.720E-03
   0.239E+00 -.610E+03 -.158E+00   -.331E+00 0.608E+03 0.207E+00   -.362E-01 0.547E-02 0.212E+00   0.124E+00 0.202E+01 0.652E-03
   0.285E-01 -.703E+03 0.176E+00   -.278E+00 0.701E+03 -.230E+00   0.477E-01 -.138E-01 -.196E+00   0.632E-01 0.226E+01 -.117E-03
   -.209E-01 -.703E+03 -.176E+00   0.270E+00 0.701E+03 0.230E+00   -.487E-01 -.147E-01 0.196E+00   -.634E-01 0.226E+01 0.101E-03
   -.266E+01 -.796E+03 0.643E-01   0.225E+01 0.794E+03 -.216E+00   -.712E-02 0.975E-01 -.157E+00   0.347E+00 0.162E+01 0.762E-01
   0.265E+01 -.796E+03 -.644E-01   -.224E+01 0.794E+03 0.217E+00   0.406E-02 0.988E-01 0.157E+00   -.345E+00 0.162E+01 -.761E-01
   0.677E+00 -.893E+03 0.644E-01   0.221E+00 0.891E+03 0.388E-01   -.178E+00 0.549E+00 -.139E+00   -.504E+00 0.144E+01 -.993E-01
   -.665E+00 -.893E+03 -.639E-01   -.235E+00 0.891E+03 -.393E-01   0.178E+00 0.549E+00 0.138E+00   0.505E+00 0.144E+01 0.993E-01
   0.425E+01 -.936E+03 0.837E+00   -.411E+01 0.932E+03 -.109E+01   -.132E+01 0.453E+01 0.617E-01   0.278E+00 0.872E+00 0.120E+00
   -.428E+01 -.936E+03 -.838E+00   0.415E+01 0.932E+03 0.109E+01   0.132E+01 0.454E+01 -.610E-01   -.281E+00 0.874E+00 -.120E+00
   0.425E+01 0.936E+03 0.837E+00   -.411E+01 -.932E+03 -.109E+01   -.132E+01 -.453E+01 0.617E-01   0.278E+00 -.871E+00 0.120E+00
   -.428E+01 0.936E+03 -.838E+00   0.415E+01 -.932E+03 0.109E+01   0.132E+01 -.454E+01 -.610E-01   -.281E+00 -.874E+00 -.120E+00
   0.677E+00 0.893E+03 0.644E-01   0.226E+00 -.891E+03 0.389E-01   -.178E+00 -.549E+00 -.139E+00   -.504E+00 -.144E+01 -.993E-01
   -.665E+00 0.893E+03 -.638E-01   -.239E+00 -.891E+03 -.393E-01   0.178E+00 -.549E+00 0.138E+00   0.505E+00 -.144E+01 0.993E-01
   -.266E+01 0.796E+03 0.643E-01   0.224E+01 -.794E+03 -.216E+00   -.712E-02 -.975E-01 -.157E+00   0.347E+00 -.162E+01 0.762E-01
   0.265E+01 0.796E+03 -.644E-01   -.224E+01 -.794E+03 0.217E+00   0.406E-02 -.988E-01 0.157E+00   -.345E+00 -.162E+01 -.761E-01
   0.285E-01 0.703E+03 0.176E+00   -.277E+00 -.701E+03 -.230E+00   0.477E-01 0.138E-01 -.196E+00   0.631E-01 -.226E+01 -.118E-03
   -.209E-01 0.703E+03 -.176E+00   0.270E+00 -.701E+03 0.230E+00   -.487E-01 0.147E-01 0.196E+00   -.633E-01 -.226E+01 0.109E-03
   -.243E+00 0.610E+03 0.158E+00   0.341E+00 -.608E+03 -.207E+00   0.338E-01 -.180E-02 -.212E+00   -.126E+00 -.202E+01 -.719E-03
   0.239E+00 0.610E+03 -.158E+00   -.334E+00 -.608E+03 0.207E+00   -.362E-01 -.547E-02 0.212E+00   0.124E+00 -.202E+01 0.626E-03
   -.914E+00 0.516E+03 0.122E+00   0.549E+00 -.514E+03 -.205E+00   0.334E-01 0.266E-01 -.212E+00   0.197E+00 -.171E+01 0.261E-01
   0.910E+00 0.516E+03 -.122E+00   -.547E+00 -.514E+03 0.205E+00   -.369E-01 0.306E-01 0.213E+00   -.195E+00 -.172E+01 -.260E-01
   -.928E-02 0.422E+03 0.158E+00   -.179E+00 -.421E+03 -.219E+00   0.120E-01 0.531E-01 -.228E+00   0.623E-01 -.177E+01 0.107E-01
   0.152E-01 0.422E+03 -.158E+00   0.172E+00 -.421E+03 0.219E+00   -.135E-01 0.508E-01 0.227E+00   -.609E-01 -.177E+01 -.106E-01
   -.356E+00 0.329E+03 0.152E+00   0.276E+00 -.327E+03 -.208E+00   0.442E-01 0.225E-01 -.220E+00   -.330E-01 -.127E+01 0.459E-02
   0.349E+00 0.329E+03 -.152E+00   -.265E+00 -.328E+03 0.209E+00   -.428E-01 0.246E-01 0.220E+00   0.289E-01 -.127E+01 -.481E-02
   -.620E+00 0.235E+03 0.133E+00   0.347E+00 -.234E+03 -.207E+00   0.479E-01 0.664E-02 -.223E+00   0.125E+00 -.872E+00 0.188E-01
   0.627E+00 0.235E+03 -.133E+00   -.357E+00 -.234E+03 0.207E+00   -.425E-01 0.968E-02 0.223E+00   -.123E+00 -.877E+00 -.187E-01
   -.296E-01 0.141E+03 0.157E+00   -.160E+00 -.140E+03 -.218E+00   -.164E-02 0.214E-01 -.228E+00   0.594E-01 -.639E+00 0.111E-01
   0.257E-01 0.141E+03 -.157E+00   0.162E+00 -.140E+03 0.218E+00   0.471E-02 0.194E-01 0.228E+00   -.578E-01 -.638E+00 -.110E-01
   -.370E+02 -.181E+04 -.885E+00   0.476E+02 0.186E+04 0.110E+01   -.102E+02 -.514E+02 -.310E+00   0.261E-01 0.191E+01 -.627E-01
   0.370E+02 -.181E+04 0.886E+00   -.476E+02 0.186E+04 -.110E+01   0.102E+02 -.514E+02 0.310E+00   -.267E-01 0.190E+01 0.623E-01
   -.370E+02 0.181E+04 -.885E+00   0.476E+02 -.186E+04 0.110E+01   -.102E+02 0.514E+02 -.310E+00   0.263E-01 -.191E+01 -.627E-01
   0.370E+02 0.181E+04 0.886E+00   -.476E+02 -.186E+04 -.110E+01   0.102E+02 0.514E+02 0.310E+00   -.267E-01 -.190E+01 0.623E-01
 -----------------------------------------------------------------------------------------------
   -.145E-01 0.123E+00 0.914E-03   0.107E-12 0.455E-12 -.946E-13   0.141E-01 0.000E+00 -.323E-02   -.212E-02 -.476E-02 -.545E-03
 
 
 POSITION                                       TOTAL-FORCE (eV/Angst)
 -----------------------------------------------------------------------------------
      4.26503      0.00031      0.00000        -0.084348     -0.043406     -0.285230
      1.42170      0.00031      0.00000         0.079906     -0.045738      0.284947
      2.13193      1.23049      0.00000        -0.084348      0.043406     -0.285230
      3.55480      1.23049      0.00000         0.079906      0.045738      0.284947
      4.26577      2.46157      0.00000        -0.132230     -0.029067     -0.285363
      1.42070      2.46148      0.00000         0.134986     -0.027524      0.285538
      2.13168      3.69262      0.00000        -0.098166      0.003666     -0.286777
      3.55481      3.69268      0.00000         0.102163      0.000065      0.286774
      4.26504      4.92321      0.00000        -0.066520      0.037523     -0.279912
      1.42178      4.92328      0.00000         0.068593      0.034911      0.279863
      2.13284      6.15476      0.00000        -0.114575     -0.065626     -0.286013
      3.55430      6.15472      0.00000         0.112977     -0.063920      0.285578
      4.26484      7.38605      0.00000        -0.133993      0.054756     -0.277300
      1.42260      7.38619      0.00000         0.130973      0.050586      0.277487
      2.13210      8.61629      0.00000         0.004220     -0.019069     -0.269550
      3.55547      8.61618      0.00000        -0.005381     -0.015785      0.269439
      4.26547      9.84847      0.00000        -0.138557     -0.022465     -0.258585
      1.42208      9.84851      0.00000         0.137884     -0.021806      0.258508
      2.12986     11.08080      0.00000        -0.073362     -0.022487     -0.240814
      3.55760     11.08074      0.00000         0.070399     -0.021141      0.240909
      0.00924     12.30166      0.00000         0.235333     -0.002681     -0.142960
      1.41175     12.30161      0.00000        -0.235332     -0.004478      0.142825
      2.13361     13.52895      0.00000        -0.875777      0.941350     -0.072070
      3.55322     13.52897      0.00000         0.878817      0.940677      0.072642
      0.00051     27.11135      0.00000        -0.875777     -0.941350     -0.072070
      1.42012     27.11132      0.00000         0.878817     -0.940677      0.072642
      2.14234     28.33860      0.00000         0.235333      0.002681     -0.142960
      3.54485     28.33865      0.00000        -0.235332      0.004478      0.142825
      4.26296     29.55946      0.00000        -0.073362      0.022487     -0.240814
      1.42450     29.55952      0.00000         0.070399      0.021141      0.240909
      2.13237     30.79183      0.00000        -0.138557      0.022465     -0.258585
      3.55518     30.79179      0.00000         0.137884      0.021806      0.258508
      4.26520     32.02397      0.00000         0.004220      0.019069     -0.269550
      1.42237     32.02408      0.00000        -0.005381      0.015785      0.269439
      2.13174     33.25421      0.00000        -0.133993     -0.054756     -0.277300
      3.55570     33.25407      0.00000         0.130973     -0.050586      0.277487
      4.26594     34.48550      0.00000        -0.114575      0.065626     -0.286013
      1.42120     34.48554      0.00000         0.112977      0.063920      0.285578
      2.13194     35.71705      0.00000        -0.066520     -0.037523     -0.279912
      3.55488     35.71698      0.00000         0.068593     -0.034911      0.279863
      4.26478     36.94768      0.00000        -0.098166     -0.003666     -0.286777
      1.42171     36.94761      0.00000         0.102163     -0.000065      0.286774
      2.13267     38.17873      0.00000        -0.132230      0.029067     -0.285363
      3.55380     38.17882      0.00000         0.134986      0.027524      0.285538
      3.96259     14.74613      0.00000         0.457670     -1.454517     -0.156188
      1.72392     14.74600      0.00000        -0.455679     -1.454526      0.156254
      1.82949     25.89417      0.00000         0.457670      1.454517     -0.156188
      3.85702     25.89430      0.00000        -0.455679      1.454526      0.156254
 -----------------------------------------------------------------------------------
    total drift:                               -0.002524      0.118579     -0.002861


--------------------------------------------------------------------------------------------------------



  FREE ENERGIE OF THE ION-ELECTRON SYSTEM (eV)
  ---------------------------------------------------
  free  energy   TOTEN  =      -407.09604236 eV

  energy  without entropy=     -407.08510195  energy(sigma->0) =     -407.09057216
 
 d Force = 0.0000000E+00[ 0.000E+00, 0.000E+00]  d Energy = 0.4187350E-06-0.419E-06
 d Force = 0.0000000E+00[ 0.000E+00, 0.000E+00]  d Ewald  = 0.0000000E+00 0.000E+00


--------------------------------------------------------------------------------------------------------


    POTLOK:  cpu time    0.0433: real time    0.0434


--------------------------------------------------------------------------------------------------------


     LOOP+:  cpu time   52.8129: real time   53.0391
    4ORBIT:  cpu time    0.0000: real time    0.0000

 total amount of memory used by VASP MPI-rank0   212785. kBytes
=======================================================================

   base      :      30000. kBytes
   nonlr-proj:       1717. kBytes
   fftplans  :       1313. kBytes
   grid      :       3454. kBytes
   one-center:         30. kBytes
   wavefun   :     176271. kBytes
 
  
  
 General timing and accounting informations for this job:
 ========================================================
  
                  Total CPU time used (sec):      454.981
                            User time (sec):      445.877
                          System time (sec):        9.104
                         Elapsed time (sec):      457.898
  
                   Maximum memory used (kb):      250064.
                   Average memory used (kb):           0.
  
                          Minor page faults:        72799
                          Major page faults:            0
                 Voluntary context switches:         4555
