<?xml version="1.0" encoding="ISO-8859-1"?>
<modeling>
 <generator>
  <i name="program" type="string">vasp </i>
  <i name="version" type="string">5.4.4.18Apr17-6-g9f103f2a35  </i>
  <i name="subversion" type="string">(build Oct 03 2018 13:58:34) complex            parallel </i>
  <i name="platform" type="string">LinuxIFC </i>
  <i name="date" type="string">2022 02 07 </i>
  <i name="time" type="string">16:23:36 </i>
 </generator>
 <incar>
  <i type="string" name="SYSTEM"> metal</i>
  <i type="int" name="ISTART">     0</i>
  <i type="string" name="PREC">normal</i>
  <i type="int" name="IALGO">    48</i>
  <i type="int" name="NSIM">     4</i>
  <i type="int" name="ISPIN">     2</i>
  <i type="int" name="ICHARG">    11</i>
  <i type="int" name="NELM">   120</i>
  <i type="int" name="IBRION">    -1</i>
  <i name="EDIFFG">     -0.01000000</i>
  <i type="int" name="NSW">     3</i>
  <i type="int" name="ISIF">     0</i>
  <i type="int" name="ISYM">     2</i>
  <i name="ENCUT">    450.00000000</i>
  <i type="string" name="LREAL">A</i>
  <i type="int" name="ISMEAR">     0</i>
  <i name="SIGMA">      0.05000000</i>
  <i type="logical" name="LWAVE"> F  </i>
  <i type="logical" name="LCHARG"> T  </i>
  <v type="int" name="KPOINT_BSE">    -1     0     0     0</v>
  <i type="int" name="NELM">   120</i>
  <i type="int" name="VOSKOWN">     0</i>
 </incar>
 <structure name="primitive_cell" >
  <crystal>
   <varray name="basis" >
    <v>       4.26620007       0.00000000       0.00000000 </v>
    <v>       0.00000000      39.40950012       0.00000000 </v>
    <v>      -1.42206471       0.00000000       3.18109970 </v>
   </varray>
   <i name="volume">    534.83451311 </i>
   <varray name="rec_basis" >
    <v>       0.23440063       0.00000000       0.10478542 </v>
    <v>       0.00000000       0.02537459       0.00000000 </v>
    <v>       0.00000000       0.00000000       0.31435670 </v>
   </varray>
  </crystal>
  <varray name="positions" >
   <v>      -0.00027365       0.00000783       0.00000000 </v>
   <v>      -0.16675274       0.03122310       0.00000000 </v>
   <v>      -0.16698817      -0.03122806       0.00000000 </v>
   <v>       0.33324726       0.00000789       0.00000000 </v>
   <v>      -0.00010142       0.06246133       0.00000000 </v>
   <v>      -0.00033177      -0.06246764       0.00000000 </v>
   <v>       0.49989858      -0.03123031       0.00000000 </v>
   <v>       0.49972635       0.03122317       0.00000000 </v>
   <v>       0.33301183       0.06245907       0.00000000 </v>
   <v>       0.33324927      -0.06246935       0.00000000 </v>
   <v>      -0.16675073       0.09370033       0.00000000 </v>
   <v>      -0.16673474      -0.09369628       0.00000000 </v>
   <v>       0.49966823       0.09369861       0.00000000 </v>
   <v>       0.49972692      -0.09369434       0.00000000 </v>
   <v>      -0.00027308       0.12492436       0.00000000 </v>
   <v>      -0.00006145      -0.12494449       0.00000000 </v>
   <v>       0.33326526       0.12492629       0.00000000 </v>
   <v>       0.33312972      -0.12494359       0.00000000 </v>
   <v>      -0.16687028       0.15617360       0.00000000 </v>
   <v>      -0.16654271      -0.15619147       0.00000000 </v>
   <v>       0.49993855       0.15617451       0.00000000 </v>
   <v>       0.49968157      -0.15618802       0.00000000 </v>
   <v>      -0.00031843       0.18741802       0.00000000 </v>
   <v>      -0.00023492      -0.18740475       0.00000000 </v>
   <v>       0.33340337      -0.18740214       0.00000000 </v>
   <v>       0.33345729       0.18742148       0.00000000 </v>
   <v>      -0.16659663       0.21863213       0.00000000 </v>
   <v>      -0.16666332      -0.21867082       0.00000000 </v>
   <v>       0.49976508       0.21863473       0.00000000 </v>
   <v>       0.49982960      -0.21866983       0.00000000 </v>
   <v>      -0.00017040       0.24990082       0.00000000 </v>
   <v>      -0.00075831      -0.24994071       0.00000000 </v>
   <v>       0.33333668       0.24990181       0.00000000 </v>
   <v>       0.33390417      -0.24993930       0.00000000 </v>
   <v>      -0.16908599      -0.28091843       0.00000000 </v>
   <v>      -0.16609583       0.28116934       0.00000000 </v>
   <v>      -0.49783527      -0.28091963       0.00000000 </v>
   <v>       0.49924169       0.28117075       0.00000000 </v>
   <v>       0.00011866      -0.31206055       0.00000000 </v>
   <v>       0.00216473       0.31214964       0.00000000 </v>
   <v>       0.33287698      -0.31206124       0.00000000 </v>
   <v>       0.33091401       0.31214843       0.00000000 </v>
   <v>      -0.09591189      -0.34294265       0.00000000 </v>
   <v>      -0.16712302       0.34329222       0.00000000 </v>
   <v>       0.42883310      -0.34294605       0.00000000 </v>
   <v>      -0.49988134       0.34329153       0.00000000 </v>
   <v>      -0.07116696       0.37417703       0.00000000 </v>
   <v>       0.40408709       0.37417364       0.00000000 </v>
  </varray>
 </structure>
 <varray name="primitive_index" >
  <v type="int" >        1 </v>
  <v type="int" >        4 </v>
  <v type="int" >       44 </v>
  <v type="int" >        2 </v>
  <v type="int" >        5 </v>
  <v type="int" >       41 </v>
  <v type="int" >       43 </v>
  <v type="int" >        3 </v>
  <v type="int" >        6 </v>
  <v type="int" >       42 </v>
  <v type="int" >        8 </v>
  <v type="int" >       40 </v>
  <v type="int" >        7 </v>
  <v type="int" >       39 </v>
  <v type="int" >        9 </v>
  <v type="int" >       37 </v>
  <v type="int" >       10 </v>
  <v type="int" >       38 </v>
  <v type="int" >       12 </v>
  <v type="int" >       36 </v>
  <v type="int" >       11 </v>
  <v type="int" >       35 </v>
  <v type="int" >       13 </v>
  <v type="int" >       33 </v>
  <v type="int" >       34 </v>
  <v type="int" >       14 </v>
  <v type="int" >       16 </v>
  <v type="int" >       32 </v>
  <v type="int" >       15 </v>
  <v type="int" >       31 </v>
  <v type="int" >       17 </v>
  <v type="int" >       29 </v>
  <v type="int" >       18 </v>
  <v type="int" >       30 </v>
  <v type="int" >       28 </v>
  <v type="int" >       20 </v>
  <v type="int" >       27 </v>
  <v type="int" >       19 </v>
  <v type="int" >       25 </v>
  <v type="int" >       21 </v>
  <v type="int" >       26 </v>
  <v type="int" >       22 </v>
  <v type="int" >       48 </v>
  <v type="int" >       24 </v>
  <v type="int" >       47 </v>
  <v type="int" >       23 </v>
  <v type="int" >       45 </v>
  <v type="int" >       46 </v>
 </varray>
 <kpoints>
  <generation param="listgenerated">
   <i name="divisions" type="int">      40 </i>
   <v>       0.00000000       0.00000000       0.00000000 </v>
   <v>       0.50000000       0.50000000       0.00000000 </v>
   <v>       0.00000000       0.50000000       0.00000000 </v>
   <v>       0.50000000       0.00000000       0.00000000 </v>
  </generation>
  <varray name="kpointlist" >
   <v>       0.00000000       0.00000000       0.00000000 </v>
   <v>       0.01282051       0.01282051       0.00000000 </v>
   <v>       0.02564103       0.02564103       0.00000000 </v>
   <v>       0.03846154       0.03846154       0.00000000 </v>
   <v>       0.05128205       0.05128205       0.00000000 </v>
   <v>       0.06410256       0.06410256       0.00000000 </v>
   <v>       0.07692308       0.07692308       0.00000000 </v>
   <v>       0.08974359       0.08974359       0.00000000 </v>
   <v>       0.10256410       0.10256410       0.00000000 </v>
   <v>       0.11538462       0.11538462       0.00000000 </v>
   <v>       0.12820513       0.12820513       0.00000000 </v>
   <v>       0.14102564       0.14102564       0.00000000 </v>
   <v>       0.15384615       0.15384615       0.00000000 </v>
   <v>       0.16666667       0.16666667       0.00000000 </v>
   <v>       0.17948718       0.17948718       0.00000000 </v>
   <v>       0.19230769       0.19230769       0.00000000 </v>
   <v>       0.20512821       0.20512821       0.00000000 </v>
   <v>       0.21794872       0.21794872       0.00000000 </v>
   <v>       0.23076923       0.23076923       0.00000000 </v>
   <v>       0.24358974       0.24358974       0.00000000 </v>
   <v>       0.25641026       0.25641026       0.00000000 </v>
   <v>       0.26923077       0.26923077       0.00000000 </v>
   <v>       0.28205128       0.28205128       0.00000000 </v>
   <v>       0.29487179       0.29487179       0.00000000 </v>
   <v>       0.30769231       0.30769231       0.00000000 </v>
   <v>       0.32051282       0.32051282       0.00000000 </v>
   <v>       0.33333333       0.33333333       0.00000000 </v>
   <v>       0.34615385       0.34615385       0.00000000 </v>
   <v>       0.35897436       0.35897436       0.00000000 </v>
   <v>       0.37179487       0.37179487       0.00000000 </v>
   <v>       0.38461538       0.38461538       0.00000000 </v>
   <v>       0.39743590       0.39743590       0.00000000 </v>
   <v>       0.41025641       0.41025641       0.00000000 </v>
   <v>       0.42307692       0.42307692       0.00000000 </v>
   <v>       0.43589744       0.43589744       0.00000000 </v>
   <v>       0.44871795       0.44871795       0.00000000 </v>
   <v>       0.46153846       0.46153846       0.00000000 </v>
   <v>       0.47435897       0.47435897       0.00000000 </v>
   <v>       0.48717949       0.48717949       0.00000000 </v>
   <v>       0.50000000       0.50000000       0.00000000 </v>
   <v>       0.50000000       0.50000000       0.00000000 </v>
   <v>       0.48717949       0.50000000       0.00000000 </v>
   <v>       0.47435897       0.50000000       0.00000000 </v>
   <v>       0.46153846       0.50000000       0.00000000 </v>
   <v>       0.44871795       0.50000000       0.00000000 </v>
   <v>       0.43589744       0.50000000       0.00000000 </v>
   <v>       0.42307692       0.50000000       0.00000000 </v>
   <v>       0.41025641       0.50000000       0.00000000 </v>
   <v>       0.39743590       0.50000000       0.00000000 </v>
   <v>       0.38461538       0.50000000       0.00000000 </v>
   <v>       0.37179487       0.50000000       0.00000000 </v>
   <v>       0.35897436       0.50000000       0.00000000 </v>
   <v>       0.34615385       0.50000000       0.00000000 </v>
   <v>       0.33333333       0.50000000       0.00000000 </v>
   <v>       0.32051282       0.50000000       0.00000000 </v>
   <v>       0.30769231       0.50000000       0.00000000 </v>
   <v>       0.29487179       0.50000000       0.00000000 </v>
   <v>       0.28205128       0.50000000       0.00000000 </v>
   <v>       0.26923077       0.50000000       0.00000000 </v>
   <v>       0.25641026       0.50000000       0.00000000 </v>
   <v>       0.24358974       0.50000000       0.00000000 </v>
   <v>       0.23076923       0.50000000       0.00000000 </v>
   <v>       0.21794872       0.50000000       0.00000000 </v>
   <v>       0.20512821       0.50000000       0.00000000 </v>
   <v>       0.19230769       0.50000000       0.00000000 </v>
   <v>       0.17948718       0.50000000       0.00000000 </v>
   <v>       0.16666667       0.50000000       0.00000000 </v>
   <v>       0.15384615       0.50000000       0.00000000 </v>
   <v>       0.14102564       0.50000000       0.00000000 </v>
   <v>       0.12820513       0.50000000       0.00000000 </v>
   <v>       0.11538462       0.50000000       0.00000000 </v>
   <v>       0.10256410       0.50000000       0.00000000 </v>
   <v>       0.08974359       0.50000000       0.00000000 </v>
   <v>       0.07692308       0.50000000       0.00000000 </v>
   <v>       0.06410256       0.50000000       0.00000000 </v>
   <v>       0.05128205       0.50000000       0.00000000 </v>
   <v>       0.03846154       0.50000000       0.00000000 </v>
   <v>       0.02564103       0.50000000       0.00000000 </v>
   <v>       0.01282051       0.50000000       0.00000000 </v>
   <v>       0.00000000       0.50000000       0.00000000 </v>
   <v>       0.00000000       0.50000000       0.00000000 </v>
   <v>       0.01282051       0.48717949       0.00000000 </v>
   <v>       0.02564103       0.47435897       0.00000000 </v>
   <v>       0.03846154       0.46153846       0.00000000 </v>
   <v>       0.05128205       0.44871795       0.00000000 </v>
   <v>       0.06410256       0.43589744       0.00000000 </v>
   <v>       0.07692308       0.42307692       0.00000000 </v>
   <v>       0.08974359       0.41025641       0.00000000 </v>
   <v>       0.10256410       0.39743590       0.00000000 </v>
   <v>       0.11538462       0.38461538       0.00000000 </v>
   <v>       0.12820513       0.37179487       0.00000000 </v>
   <v>       0.14102564       0.35897436       0.00000000 </v>
   <v>       0.15384615       0.34615385       0.00000000 </v>
   <v>       0.16666667       0.33333333       0.00000000 </v>
   <v>       0.17948718       0.32051282       0.00000000 </v>
   <v>       0.19230769       0.30769231       0.00000000 </v>
   <v>       0.20512821       0.29487179       0.00000000 </v>
   <v>       0.21794872       0.28205128       0.00000000 </v>
   <v>       0.23076923       0.26923077       0.00000000 </v>
   <v>       0.24358974       0.25641026       0.00000000 </v>
   <v>       0.25641026       0.24358974       0.00000000 </v>
   <v>       0.26923077       0.23076923       0.00000000 </v>
   <v>       0.28205128       0.21794872       0.00000000 </v>
   <v>       0.29487179       0.20512821       0.00000000 </v>
   <v>       0.30769231       0.19230769       0.00000000 </v>
   <v>       0.32051282       0.17948718       0.00000000 </v>
   <v>       0.33333333       0.16666667       0.00000000 </v>
   <v>       0.34615385       0.15384615       0.00000000 </v>
   <v>       0.35897436       0.14102564       0.00000000 </v>
   <v>       0.37179487       0.12820513       0.00000000 </v>
   <v>       0.38461538       0.11538462       0.00000000 </v>
   <v>       0.39743590       0.10256410       0.00000000 </v>
   <v>       0.41025641       0.08974359       0.00000000 </v>
   <v>       0.42307692       0.07692308       0.00000000 </v>
   <v>       0.43589744       0.06410256       0.00000000 </v>
   <v>       0.44871795       0.05128205       0.00000000 </v>
   <v>       0.46153846       0.03846154       0.00000000 </v>
   <v>       0.47435897       0.02564103       0.00000000 </v>
   <v>       0.48717949       0.01282051       0.00000000 </v>
   <v>       0.50000000       0.00000000       0.00000000 </v>
  </varray>
  <varray name="weights" >
   <v>       0.00833333 </v>
   <v>       0.00833333 </v>
   <v>       0.00833333 </v>
   <v>       0.00833333 </v>
   <v>       0.00833333 </v>
   <v>       0.00833333 </v>
   <v>       0.00833333 </v>
   <v>       0.00833333 </v>
   <v>       0.00833333 </v>
   <v>       0.00833333 </v>
   <v>       0.00833333 </v>
   <v>       0.00833333 </v>
   <v>       0.00833333 </v>
   <v>       0.00833333 </v>
   <v>       0.00833333 </v>
   <v>       0.00833333 </v>
   <v>       0.00833333 </v>
   <v>       0.00833333 </v>
   <v>       0.00833333 </v>
   <v>       0.00833333 </v>
   <v>       0.00833333 </v>
   <v>       0.00833333 </v>
   <v>       0.00833333 </v>
   <v>       0.00833333 </v>
   <v>       0.00833333 </v>
   <v>       0.00833333 </v>
   <v>       0.00833333 </v>
   <v>       0.00833333 </v>
   <v>       0.00833333 </v>
   <v>       0.00833333 </v>
   <v>       0.00833333 </v>
   <v>       0.00833333 </v>
   <v>       0.00833333 </v>
   <v>       0.00833333 </v>
   <v>       0.00833333 </v>
   <v>       0.00833333 </v>
   <v>       0.00833333 </v>
   <v>       0.00833333 </v>
   <v>       0.00833333 </v>
   <v>       0.00833333 </v>
   <v>       0.00833333 </v>
   <v>       0.00833333 </v>
   <v>       0.00833333 </v>
   <v>       0.00833333 </v>
   <v>       0.00833333 </v>
   <v>       0.00833333 </v>
   <v>       0.00833333 </v>
   <v>       0.00833333 </v>
   <v>       0.00833333 </v>
   <v>       0.00833333 </v>
   <v>       0.00833333 </v>
   <v>       0.00833333 </v>
   <v>       0.00833333 </v>
   <v>       0.00833333 </v>
   <v>       0.00833333 </v>
   <v>       0.00833333 </v>
   <v>       0.00833333 </v>
   <v>       0.00833333 </v>
   <v>       0.00833333 </v>
   <v>       0.00833333 </v>
   <v>       0.00833333 </v>
   <v>       0.00833333 </v>
   <v>       0.00833333 </v>
   <v>       0.00833333 </v>
   <v>       0.00833333 </v>
   <v>       0.00833333 </v>
   <v>       0.00833333 </v>
   <v>       0.00833333 </v>
   <v>       0.00833333 </v>
   <v>       0.00833333 </v>
   <v>       0.00833333 </v>
   <v>       0.00833333 </v>
   <v>       0.00833333 </v>
   <v>       0.00833333 </v>
   <v>       0.00833333 </v>
   <v>       0.00833333 </v>
   <v>       0.00833333 </v>
   <v>       0.00833333 </v>
   <v>       0.00833333 </v>
   <v>       0.00833333 </v>
   <v>       0.00833333 </v>
   <v>       0.00833333 </v>
   <v>       0.00833333 </v>
   <v>       0.00833333 </v>
   <v>       0.00833333 </v>
   <v>       0.00833333 </v>
   <v>       0.00833333 </v>
   <v>       0.00833333 </v>
   <v>       0.00833333 </v>
   <v>       0.00833333 </v>
   <v>       0.00833333 </v>
   <v>       0.00833333 </v>
   <v>       0.00833333 </v>
   <v>       0.00833333 </v>
   <v>       0.00833333 </v>
   <v>       0.00833333 </v>
   <v>       0.00833333 </v>
   <v>       0.00833333 </v>
   <v>       0.00833333 </v>
   <v>       0.00833333 </v>
   <v>       0.00833333 </v>
   <v>       0.00833333 </v>
   <v>       0.00833333 </v>
   <v>       0.00833333 </v>
   <v>       0.00833333 </v>
   <v>       0.00833333 </v>
   <v>       0.00833333 </v>
   <v>       0.00833333 </v>
   <v>       0.00833333 </v>
   <v>       0.00833333 </v>
   <v>       0.00833333 </v>
   <v>       0.00833333 </v>
   <v>       0.00833333 </v>
   <v>       0.00833333 </v>
   <v>       0.00833333 </v>
   <v>       0.00833333 </v>
   <v>       0.00833333 </v>
   <v>       0.00833333 </v>
   <v>       0.00833333 </v>
   <v>       0.00833333 </v>
  </varray>
 </kpoints>
 <parameters>
  <separator name="general" >
   <i type="string" name="SYSTEM">metal</i>
   <i type="logical" name="LCOMPAT"> F  </i>
  </separator>
  <separator name="electronic" >
   <i type="string" name="PREC">normal</i>
   <i name="ENMAX">    450.00000000</i>
   <i name="ENAUG">    644.87300000</i>
   <i name="EDIFF">      0.00010000</i>
   <i type="int" name="IALGO">    48</i>
   <i type="int" name="IWAVPR">    10</i>
   <i type="int" name="NBANDS">   152</i>
   <i name="NELECT">    200.00000000</i>
   <i type="int" name="TURBO">     0</i>
   <i type="int" name="IRESTART">     0</i>
   <i type="int" name="NREBOOT">     0</i>
   <i type="int" name="NMIN">     0</i>
   <i name="EREF">      0.00000000</i>
   <separator name="electronic smearing" >
    <i type="int" name="ISMEAR">     0</i>
    <i name="SIGMA">      0.05000000</i>
    <i name="KSPACING">      0.50000000</i>
    <i type="logical" name="KGAMMA"> T  </i>
   </separator>
   <separator name="electronic projectors" >
    <i type="logical" name="LREAL"> T  </i>
    <v name="ROPT">     -0.00050000     -0.00050000</v>
    <i type="int" name="LMAXPAW">  -100</i>
    <i type="int" name="LMAXMIX">     2</i>
    <i type="logical" name="NLSPLINE"> F  </i>
   </separator>
   <separator name="electronic startup" >
    <i type="int" name="ISTART">     0</i>
    <i type="int" name="ICHARG">    11</i>
    <i type="int" name="INIWAV">     1</i>
   </separator>
   <separator name="electronic spin" >
    <i type="int" name="ISPIN">     2</i>
    <i type="logical" name="LNONCOLLINEAR"> F  </i>
    <v name="MAGMOM">      1.00000000      1.00000000      1.00000000      1.00000000      1.00000000      1.00000000      1.00000000      1.00000000      1.00000000      1.00000000      1.00000000      1.00000000      1.00000000      1.00000000      1.00000000      1.00000000      1.00000000      1.00000000      1.00000000      1.00000000
      1.00000000      1.00000000      1.00000000      1.00000000      1.00000000      1.00000000      1.00000000      1.00000000      1.00000000      1.00000000      1.00000000      1.00000000      1.00000000      1.00000000      1.00000000      1.00000000      1.00000000      1.00000000      1.00000000      1.00000000
      1.00000000      1.00000000      1.00000000      1.00000000      1.00000000      1.00000000      1.00000000      1.00000000</v>
    <i name="NUPDOWN">     -1.00000000</i>
    <i type="logical" name="LSORBIT"> F  </i>
    <v name="SAXIS">      0.00000000      0.00000000      1.00000000</v>
    <i type="logical" name="LSPIRAL"> F  </i>
    <v name="QSPIRAL">      0.00000000      0.00000000      0.00000000</v>
    <i type="logical" name="LZEROZ"> F  </i>
   </separator>
   <separator name="electronic exchange-correlation" >
    <i type="logical" name="LASPH"> F  </i>
    <i type="logical" name="LMETAGGA"> F  </i>
   </separator>
   <separator name="electronic convergence" >
    <i type="int" name="NELM">   120</i>
    <i type="int" name="NELMDL">   -12</i>
    <i type="int" name="NELMIN">     2</i>
    <i name="ENINI">    450.00000000</i>
    <separator name="electronic convergence detail" >
     <i type="logical" name="LDIAG"> T  </i>
     <i type="logical" name="LSUBROT"> F  </i>
     <i name="WEIMIN">      0.00000000</i>
     <i name="EBREAK">      0.00000016</i>
     <i name="DEPER">      0.30000000</i>
     <i type="int" name="NRMM">     4</i>
     <i name="TIME">      0.40000000</i>
    </separator>
   </separator>
   <separator name="electronic mixer" >
    <i name="AMIX">      0.40000000</i>
    <i name="BMIX">      1.00000000</i>
    <i name="AMIN">      0.10000000</i>
    <i name="AMIX_MAG">      1.60000000</i>
    <i name="BMIX_MAG">      1.00000000</i>
    <separator name="electronic mixer details" >
     <i type="int" name="IMIX">     4</i>
     <i type="logical" name="MIXFIRST"> F  </i>
     <i type="int" name="MAXMIX">   -45</i>
     <i name="WC">    100.00000000</i>
     <i type="int" name="INIMIX">     1</i>
     <i type="int" name="MIXPRE">     1</i>
     <i type="int" name="MREMOVE">     5</i>
    </separator>
   </separator>
   <separator name="electronic dipolcorrection" >
    <i type="logical" name="LDIPOL"> F  </i>
    <i type="logical" name="LMONO"> F  </i>
    <i type="int" name="IDIPOL">     0</i>
    <i name="EPSILON">      1.00000000</i>
    <v name="DIPOL">   -100.00000000   -100.00000000   -100.00000000</v>
    <i name="EFIELD">      0.00000000</i>
   </separator>
  </separator>
  <separator name="grids" >
   <i type="int" name="NGX">    24</i>
   <i type="int" name="NGY">   210</i>
   <i type="int" name="NGZ">    18</i>
   <i type="int" name="NGXF">    48</i>
   <i type="int" name="NGYF">   420</i>
   <i type="int" name="NGZF">    36</i>
   <i type="logical" name="ADDGRID"> F  </i>
  </separator>
  <separator name="ionic" >
   <i type="int" name="NSW">     3</i>
   <i type="int" name="IBRION">    -1</i>
   <i type="int" name="MDALGO">     0</i>
   <i type="int" name="ISIF">     0</i>
   <i name="PSTRESS">      0.00000000</i>
   <i name="EDIFFG">     -0.01000000</i>
   <i type="int" name="NFREE">     0</i>
   <i name="POTIM">      0.50000000</i>
   <i name="SMASS">     -3.00000000</i>
   <i name="SCALEE">      1.00000000</i>
  </separator>
  <separator name="ionic md" >
   <i name="TEBEG">      0.00010000</i>
   <i name="TEEND">      0.00010000</i>
   <i type="int" name="NBLOCK">     1</i>
   <i type="int" name="KBLOCK">     3</i>
   <i type="int" name="NPACO">   256</i>
   <i name="APACO">     16.00000000</i>
  </separator>
  <separator name="symmetry" >
   <i type="int" name="ISYM">     2</i>
   <i name="SYMPREC">      0.00001000</i>
  </separator>
  <separator name="dos" >
   <i type="int" name="LORBIT">     0</i>
   <v name="RWIGS">     -1.00000000     -1.00000000</v>
   <i type="int" name="NEDOS">   301</i>
   <i name="EMIN">     10.00000000</i>
   <i name="EMAX">    -10.00000000</i>
   <i name="EFERMI">      0.00000000</i>
  </separator>
  <separator name="writing" >
   <i type="int" name="NWRITE">     2</i>
   <i type="logical" name="LWAVE"> F  </i>
   <i type="logical" name="LDOWNSAMPLE"> F  </i>
   <i type="logical" name="LCHARG"> T  </i>
   <i type="logical" name="LPARD"> F  </i>
   <i type="logical" name="LVTOT"> F  </i>
   <i type="logical" name="LVHAR"> F  </i>
   <i type="logical" name="LELF"> F  </i>
   <i type="logical" name="LOPTICS"> F  </i>
   <v name="STM">      0.00000000      0.00000000      0.00000000      0.00000000      0.00000000      0.00000000      0.00000000</v>
  </separator>
  <separator name="performance" >
   <i type="int" name="NPAR">     4</i>
   <i type="int" name="NSIM">     4</i>
   <i type="int" name="NBLK">    -1</i>
   <i type="logical" name="LPLANE"> T  </i>
   <i type="logical" name="LSCALAPACK"> T  </i>
   <i type="logical" name="LSCAAWARE"> F  </i>
   <i type="logical" name="LSCALU"> F  </i>
   <i type="logical" name="LASYNC"> F  </i>
   <i type="logical" name="LORBITALREAL"> F  </i>
  </separator>
  <separator name="miscellaneous" >
   <i type="int" name="IDIOT">     3</i>
   <i type="int" name="ISPECIAL">     0</i>
   <i type="logical" name="LMUSIC"> F  </i>
   <v name="POMASS">     12.01100000     16.00000000</v>
   <v name="DARWINR">      0.00000000      0.00000000</v>
   <v name="DARWINV">      1.00000000      1.00000000</v>
   <i type="logical" name="LCORR"> T  </i>
  </separator>
  <i type="logical" name="GGA_COMPAT"> T  </i>
  <i type="logical" name="LBERRY"> F  </i>
  <i type="int" name="ICORELEVEL">     0</i>
  <i type="logical" name="LDAU"> F  </i>
  <i type="int" name="I_CONSTRAINED_M">     0</i>
  <separator name="electronic exchange-correlation" >
   <i type="string" name="GGA">--</i>
   <i type="int" name="VOSKOWN">     0</i>
   <i type="logical" name="LHFCALC"> F  </i>
   <i type="string" name="PRECFOCK"></i>
   <i type="logical" name="LSYMGRAD"> F  </i>
   <i type="logical" name="LHFONE"> F  </i>
   <i type="logical" name="LRHFCALC"> F  </i>
   <i type="logical" name="LTHOMAS"> F  </i>
   <i type="logical" name="LMODELHF"> F  </i>
   <i name="ENCUT4O">     -1.00000000</i>
   <i type="int" name="EXXOEP">     0</i>
   <i type="int" name="FOURORBIT">     0</i>
   <i name="AEXX">      0.00000000</i>
   <i name="HFALPHA">      0.00000000</i>
   <i name="MCALPHA">      0.00000000</i>
   <i name="ALDAX">      1.00000000</i>
   <i name="AGGAX">      1.00000000</i>
   <i name="ALDAC">      1.00000000</i>
   <i name="AGGAC">      1.00000000</i>
   <i type="int" name="NKREDX">     1</i>
   <i type="int" name="NKREDY">     1</i>
   <i type="int" name="NKREDZ">     1</i>
   <i type="logical" name="SHIFTRED"> F  </i>
   <i type="logical" name="ODDONLY"> F  </i>
   <i type="logical" name="EVENONLY"> F  </i>
   <i type="int" name="LMAXFOCK">     0</i>
   <i type="int" name="NMAXFOCKAE">     0</i>
   <i type="logical" name="LFOCKAEDFT"> F  </i>
   <i name="HFSCREEN">      0.00000000</i>
   <i name="HFSCREENC">      0.00000000</i>
   <i type="int" name="NBANDSGWLOW">     0</i>
  </separator>
  <separator name="vdW DFT" >
   <i type="logical" name="LUSE_VDW"> F  </i>
   <i name="Zab_VDW">     -0.84910000</i>
   <i name="PARAM1">      0.12340000</i>
   <i name="PARAM2">      1.00000000</i>
   <i name="PARAM3">      0.00000000</i>
  </separator>
  <separator name="model GW" >
   <i type="int" name="MODEL_GW">     0</i>
   <i name="MODEL_EPS0">      6.68543141</i>
   <i name="MODEL_ALPHA">      1.00000000</i>
  </separator>
  <separator name="linear response parameters" >
   <i type="logical" name="LEPSILON"> F  </i>
   <i type="logical" name="LRPA"> F  </i>
   <i type="logical" name="LNABLA"> F  </i>
   <i type="logical" name="LVEL"> F  </i>
   <i type="int" name="KINTER">     0</i>
   <i name="CSHIFT">      0.10000000</i>
   <i name="OMEGAMAX">     -1.00000000</i>
   <i name="DEG_THRESHOLD">      0.00200000</i>
   <i name="RTIME">     -0.10000000</i>
   <i name="WPLASMAI">      0.00000000</i>
   <v name="DFIELD">      0.00000000      0.00000000      0.00000000</v>
   <v name="WPLASMA">      0.00000000      0.00000000      0.00000000      0.00000000      0.00000000      0.00000000      0.00000000      0.00000000      0.00000000</v>
  </separator>
  <separator name="orbital magnetization" >
   <i type="logical" name="NUCIND"> F  </i>
   <v name="MAGPOS">      0.00000000      0.00000000      0.00000000</v>
   <i type="logical" name="LNICSALL"> T  </i>
   <i type="logical" name="ORBITALMAG"> F  </i>
   <i type="logical" name="LMAGBLOCH"> F  </i>
   <i type="logical" name="LCHIMAG"> F  </i>
   <i type="logical" name="LGAUGE"> T  </i>
   <i type="int" name="MAGATOM">     0</i>
   <v name="MAGDIPOL">      0.00000000      0.00000000      0.00000000</v>
   <v name="AVECCONST">      0.00000000      0.00000000      0.00000000</v>
  </separator>
  <separator name="response functions" >
   <i type="logical" name="LADDER"> F  </i>
   <i type="logical" name="LRPAFORCE"> F  </i>
   <i type="logical" name="LFXC"> F  </i>
   <i type="logical" name="LHARTREE"> T  </i>
   <i type="int" name="IBSE">     0</i>
   <v type="int" name="KPOINT">    -1     0     0     0</v>
   <i type="logical" name="LTCTE"> F  </i>
   <i type="logical" name="LTETE"> F  </i>
   <i type="logical" name="LTRIPLET"> F  </i>
   <i type="logical" name="LFXCEPS"> F  </i>
   <i type="logical" name="LFXHEG"> F  </i>
   <i type="int" name="NATURALO">     2</i>
   <i type="logical" name="L2ORDER"> F  </i>
   <i type="logical" name="LMP2LT"> F  </i>
   <i type="logical" name="LUSEW"> F  </i>
   <i name="ENCUTGW">     -2.00000000</i>
   <i name="ENCUTGWSOFT">     -2.00000000</i>
   <i name="ENCUTLF">     -1.00000000</i>
   <i type="int" name="LMAXMP2">    -1</i>
   <i name="SCISSOR">      0.00000000</i>
   <i type="int" name="NOMEGA">     0</i>
   <i type="int" name="NOMEGAR">     0</i>
   <i type="int" name="NBANDSGW">    -1</i>
   <i type="int" name="NBANDSO">    -1</i>
   <i type="int" name="NBANDSV">    -1</i>
   <i type="int" name="NELM">   120</i>
   <i type="int" name="NELMHF">     1</i>
   <i type="int" name="DIM">     3</i>
   <i type="int" name="ANTIRES">     0</i>
   <i name="OMEGAMAX">    -30.00000000</i>
   <i name="OMEGAMIN">    -30.00000000</i>
   <i name="OMEGATL">   -200.00000000</i>
   <i type="int" name="OMEGAGRID">   140</i>
   <i name="CSHIFT">     -0.10000000</i>
   <i type="logical" name="SELFENERGY"> F  </i>
   <i type="logical" name="LSPECTRAL"> F  </i>
   <i type="logical" name="LSPECTRALGW"> F  </i>
   <i type="logical" name="LSINGLES"> F  </i>
   <i type="logical" name="LFERMIGW"> F  </i>
   <i type="logical" name="ODDONLYGW"> F  </i>
   <i type="logical" name="EVENONLYGW"> F  </i>
   <i type="int" name="NKREDLFX">     1</i>
   <i type="int" name="NKREDLFY">     1</i>
   <i type="int" name="NKREDLFZ">     1</i>
   <i type="int" name="MAXMEM">  2800</i>
   <i type="int" name="TELESCOPE">     0</i>
   <i type="int" name="TAUPAR">     1</i>
   <i type="int" name="OMEGAPAR">    -1</i>
   <i name="LAMBDA">      1.00000000</i>
  </separator>
  <separator name="External order field" >
   <i name="OFIELD_KAPPA">      0.00000000</i>
   <v name="OFIELD_K">      0.00000000      0.00000000      0.00000000</v>
   <i name="OFIELD_Q6_NEAR">      0.00000000</i>
   <i name="OFIELD_Q6_FAR">      0.00000000</i>
   <i name="OFIELD_A">      0.00000000</i>
  </separator>
 </parameters>
 <atominfo>
  <atoms>      48 </atoms>
  <types>       2 </types>
  <array name="atoms" >
   <dimension dim="1">ion</dimension>
   <field type="string">element</field>
   <field type="int">atomtype</field>
   <set>
    <rc><c>C </c><c>   1</c></rc>
    <rc><c>C </c><c>   1</c></rc>
    <rc><c>C </c><c>   1</c></rc>
    <rc><c>C </c><c>   1</c></rc>
    <rc><c>C </c><c>   1</c></rc>
    <rc><c>C </c><c>   1</c></rc>
    <rc><c>C </c><c>   1</c></rc>
    <rc><c>C </c><c>   1</c></rc>
    <rc><c>C </c><c>   1</c></rc>
    <rc><c>C </c><c>   1</c></rc>
    <rc><c>C </c><c>   1</c></rc>
    <rc><c>C </c><c>   1</c></rc>
    <rc><c>C </c><c>   1</c></rc>
    <rc><c>C </c><c>   1</c></rc>
    <rc><c>C </c><c>   1</c></rc>
    <rc><c>C </c><c>   1</c></rc>
    <rc><c>C </c><c>   1</c></rc>
    <rc><c>C </c><c>   1</c></rc>
    <rc><c>C </c><c>   1</c></rc>
    <rc><c>C </c><c>   1</c></rc>
    <rc><c>C </c><c>   1</c></rc>
    <rc><c>C </c><c>   1</c></rc>
    <rc><c>C </c><c>   1</c></rc>
    <rc><c>C </c><c>   1</c></rc>
    <rc><c>C </c><c>   1</c></rc>
    <rc><c>C </c><c>   1</c></rc>
    <rc><c>C </c><c>   1</c></rc>
    <rc><c>C </c><c>   1</c></rc>
    <rc><c>C </c><c>   1</c></rc>
    <rc><c>C </c><c>   1</c></rc>
    <rc><c>C </c><c>   1</c></rc>
    <rc><c>C </c><c>   1</c></rc>
    <rc><c>C </c><c>   1</c></rc>
    <rc><c>C </c><c>   1</c></rc>
    <rc><c>C </c><c>   1</c></rc>
    <rc><c>C </c><c>   1</c></rc>
    <rc><c>C </c><c>   1</c></rc>
    <rc><c>C </c><c>   1</c></rc>
    <rc><c>C </c><c>   1</c></rc>
    <rc><c>C </c><c>   1</c></rc>
    <rc><c>C </c><c>   1</c></rc>
    <rc><c>C </c><c>   1</c></rc>
    <rc><c>C </c><c>   1</c></rc>
    <rc><c>C </c><c>   1</c></rc>
    <rc><c>O </c><c>   2</c></rc>
    <rc><c>O </c><c>   2</c></rc>
    <rc><c>O </c><c>   2</c></rc>
    <rc><c>O </c><c>   2</c></rc>
   </set>
  </array>
  <array name="atomtypes" >
   <dimension dim="1">type</dimension>
   <field type="int">atomspertype</field>
   <field type="string">element</field>
   <field>mass</field>
   <field>valence</field>
   <field type="string">pseudopotential</field>
   <set>
    <rc><c>  44</c><c>C </c><c>     12.01100000</c><c>      4.00000000</c><c>  PAW_PBE C 08Apr2002                   </c></rc>
    <rc><c>   4</c><c>O </c><c>     16.00000000</c><c>      6.00000000</c><c>  PAW_PBE O 08Apr2002                   </c></rc>
   </set>
  </array>
 </atominfo>
 <structure name="initialpos" >
  <crystal>
   <varray name="basis" >
    <v>       4.26620007       0.00000000       0.00000000 </v>
    <v>       0.00000000      39.40950012       0.00000000 </v>
    <v>      -1.42206471       0.00000000       3.18109970 </v>
   </varray>
   <i name="volume">    534.83451311 </i>
   <varray name="rec_basis" >
    <v>       0.23440063       0.00000000       0.10478542 </v>
    <v>       0.00000000       0.02537459       0.00000000 </v>
    <v>       0.00000000       0.00000000       0.31435670 </v>
   </varray>
  </crystal>
  <varray name="positions" >
   <v>       0.99972635       0.00000783       0.00000000 </v>
   <v>       0.33324726       0.00000789       0.00000000 </v>
   <v>       0.49972635       0.03122317       0.00000000 </v>
   <v>       0.83324726       0.03122310       0.00000000 </v>
   <v>       0.99989858       0.06246133       0.00000000 </v>
   <v>       0.33301183       0.06245907       0.00000000 </v>
   <v>       0.49966823       0.09369861       0.00000000 </v>
   <v>       0.83324927       0.09370033       0.00000000 </v>
   <v>       0.99972692       0.12492436       0.00000000 </v>
   <v>       0.33326526       0.12492629       0.00000000 </v>
   <v>       0.49993855       0.15617451       0.00000000 </v>
   <v>       0.83312972       0.15617360       0.00000000 </v>
   <v>       0.99968157       0.18741802       0.00000000 </v>
   <v>       0.33345729       0.18742148       0.00000000 </v>
   <v>       0.49976508       0.21863473       0.00000000 </v>
   <v>       0.83340337       0.21863213       0.00000000 </v>
   <v>       0.99982960       0.24990082       0.00000000 </v>
   <v>       0.33333668       0.24990181       0.00000000 </v>
   <v>       0.49924169       0.28117075       0.00000000 </v>
   <v>       0.83390417       0.28116934       0.00000000 </v>
   <v>       0.00216473       0.31214964       0.00000000 </v>
   <v>       0.33091401       0.31214843       0.00000000 </v>
   <v>       0.50011866       0.34329153       0.00000000 </v>
   <v>       0.83287698       0.34329222       0.00000000 </v>
   <v>       0.00011866       0.68793945       0.00000000 </v>
   <v>       0.33287698       0.68793876       0.00000000 </v>
   <v>       0.50216473       0.71908037       0.00000000 </v>
   <v>       0.83091401       0.71908157       0.00000000 </v>
   <v>       0.99924169       0.75005929       0.00000000 </v>
   <v>       0.33390417       0.75006070       0.00000000 </v>
   <v>       0.49982960       0.78133017       0.00000000 </v>
   <v>       0.83333668       0.78132918       0.00000000 </v>
   <v>       0.99976508       0.81259525       0.00000000 </v>
   <v>       0.33340337       0.81259786       0.00000000 </v>
   <v>       0.49968157       0.84381198       0.00000000 </v>
   <v>       0.83345729       0.84380853       0.00000000 </v>
   <v>       0.99993855       0.87505551       0.00000000 </v>
   <v>       0.33312972       0.87505641       0.00000000 </v>
   <v>       0.49972692       0.90630566       0.00000000 </v>
   <v>       0.83326526       0.90630372       0.00000000 </v>
   <v>       0.99966823       0.93753236       0.00000000 </v>
   <v>       0.33324927       0.93753065       0.00000000 </v>
   <v>       0.49989858       0.96876969       0.00000000 </v>
   <v>       0.83301183       0.96877194       0.00000000 </v>
   <v>       0.92883304       0.37417703       0.00000000 </v>
   <v>       0.40408709       0.37417364       0.00000000 </v>
   <v>       0.42883310       0.65705395       0.00000000 </v>
   <v>       0.90408811       0.65705735       0.00000000 </v>
  </varray>
  <varray name="selective"  type="logical" >
   <v type="logical" >  T  T  F </v>
   <v type="logical" >  T  T  F </v>
   <v type="logical" >  T  T  F </v>
   <v type="logical" >  T  T  F </v>
   <v type="logical" >  T  T  F </v>
   <v type="logical" >  T  T  F </v>
   <v type="logical" >  T  T  F </v>
   <v type="logical" >  T  T  F </v>
   <v type="logical" >  T  T  F </v>
   <v type="logical" >  T  T  F </v>
   <v type="logical" >  T  T  F </v>
   <v type="logical" >  T  T  F </v>
   <v type="logical" >  T  T  F </v>
   <v type="logical" >  T  T  F </v>
   <v type="logical" >  T  T  F </v>
   <v type="logical" >  T  T  F </v>
   <v type="logical" >  T  T  F </v>
   <v type="logical" >  T  T  F </v>
   <v type="logical" >  T  T  F </v>
   <v type="logical" >  T  T  F </v>
   <v type="logical" >  T  T  F </v>
   <v type="logical" >  T  T  F </v>
   <v type="logical" >  T  T  F </v>
   <v type="logical" >  T  T  F </v>
   <v type="logical" >  T  T  F </v>
   <v type="logical" >  T  T  F </v>
   <v type="logical" >  T  T  F </v>
   <v type="logical" >  T  T  F </v>
   <v type="logical" >  T  T  F </v>
   <v type="logical" >  T  T  F </v>
   <v type="logical" >  T  T  F </v>
   <v type="logical" >  T  T  F </v>
   <v type="logical" >  T  T  F </v>
   <v type="logical" >  T  T  F </v>
   <v type="logical" >  T  T  F </v>
   <v type="logical" >  T  T  F </v>
   <v type="logical" >  T  T  F </v>
   <v type="logical" >  T  T  F </v>
   <v type="logical" >  T  T  F </v>
   <v type="logical" >  T  T  F </v>
   <v type="logical" >  T  T  F </v>
   <v type="logical" >  T  T  F </v>
   <v type="logical" >  T  T  F </v>
   <v type="logical" >  T  T  F </v>
   <v type="logical" >  T  T  F </v>
   <v type="logical" >  T  T  F </v>
   <v type="logical" >  T  T  F </v>
   <v type="logical" >  T  T  F </v>
  </varray>
  <varray name="velocities" >
   <v>       0.00000000       0.00000000       0.00000000 </v>
   <v>       0.00000000       0.00000000       0.00000000 </v>
   <v>       0.00000000       0.00000000       0.00000000 </v>
   <v>       0.00000000       0.00000000       0.00000000 </v>
   <v>       0.00000000       0.00000000       0.00000000 </v>
   <v>       0.00000000       0.00000000       0.00000000 </v>
   <v>       0.00000000       0.00000000       0.00000000 </v>
   <v>       0.00000000       0.00000000       0.00000000 </v>
   <v>       0.00000000       0.00000000       0.00000000 </v>
   <v>       0.00000000       0.00000000       0.00000000 </v>
   <v>       0.00000000       0.00000000       0.00000000 </v>
   <v>       0.00000000       0.00000000       0.00000000 </v>
   <v>       0.00000000       0.00000000       0.00000000 </v>
   <v>       0.00000000       0.00000000       0.00000000 </v>
   <v>       0.00000000       0.00000000       0.00000000 </v>
   <v>       0.00000000       0.00000000       0.00000000 </v>
   <v>       0.00000000       0.00000000       0.00000000 </v>
   <v>       0.00000000       0.00000000       0.00000000 </v>
   <v>       0.00000000       0.00000000       0.00000000 </v>
   <v>       0.00000000       0.00000000       0.00000000 </v>
   <v>       0.00000000       0.00000000       0.00000000 </v>
   <v>       0.00000000       0.00000000       0.00000000 </v>
   <v>       0.00000000       0.00000000       0.00000000 </v>
   <v>       0.00000000       0.00000000       0.00000000 </v>
   <v>       0.00000000       0.00000000       0.00000000 </v>
   <v>       0.00000000       0.00000000       0.00000000 </v>
   <v>       0.00000000       0.00000000       0.00000000 </v>
   <v>       0.00000000       0.00000000       0.00000000 </v>
   <v>       0.00000000       0.00000000       0.00000000 </v>
   <v>       0.00000000       0.00000000       0.00000000 </v>
   <v>       0.00000000       0.00000000       0.00000000 </v>
   <v>       0.00000000       0.00000000       0.00000000 </v>
   <v>       0.00000000       0.00000000       0.00000000 </v>
   <v>       0.00000000       0.00000000       0.00000000 </v>
   <v>       0.00000000       0.00000000       0.00000000 </v>
   <v>       0.00000000       0.00000000       0.00000000 </v>
   <v>       0.00000000       0.00000000       0.00000000 </v>
   <v>       0.00000000       0.00000000       0.00000000 </v>
   <v>       0.00000000       0.00000000       0.00000000 </v>
   <v>       0.00000000       0.00000000       0.00000000 </v>
   <v>       0.00000000       0.00000000       0.00000000 </v>
   <v>       0.00000000       0.00000000       0.00000000 </v>
   <v>       0.00000000       0.00000000       0.00000000 </v>
   <v>       0.00000000       0.00000000       0.00000000 </v>
   <v>       0.00000000       0.00000000       0.00000000 </v>
   <v>       0.00000000       0.00000000       0.00000000 </v>
   <v>       0.00000000       0.00000000       0.00000000 </v>
   <v>       0.00000000       0.00000000       0.00000000 </v>
  </varray>
  <nose>
   <v>      -3.00000000       0.00000000       0.00010000       0.00010000 </v>
  </nose>
 </structure>
 <calculation>
  <scstep>
   <time name="diag">    7.29    7.31</time>
   <time name="diis">    9.80    9.85</time>
   <time name="orth">    1.12    1.12</time>
   <time name="total">   18.26   18.34</time>
   <energy>
    <i name="alphaZ">    372.54520999 </i>
    <i name="ewald">  38165.18647767 </i>
    <i name="hartreedc"> -46378.82763434 </i>
    <i name="XCdc">    720.76359215 </i>
    <i name="pawpsdc">  20731.70950387 </i>
    <i name="pawaedc"> -20769.13943555 </i>
    <i name="eentropy">     -0.00767384 </i>
    <i name="bandstr">   1064.01048496 </i>
    <i name="atom">   8203.71208324 </i>
    <i name="e_fr_energy">   2109.95260817 </i>
    <i name="e_wo_entrp">   2109.96028201 </i>
    <i name="e_0_energy">   2109.95644509 </i>
   </energy>
  </scstep>
  <scstep>
   <time name="diag">    7.26    7.28</time>
   <time name="diis">    9.69    9.72</time>
   <time name="orth">    1.11    1.11</time>
   <time name="total">   18.07   18.13</time>
   <energy>
    <i name="e_fr_energy">    449.99063692 </i>
    <i name="e_wo_entrp">    450.00083323 </i>
    <i name="e_0_energy">    449.99573507 </i>
   </energy>
  </scstep>
  <scstep>
   <time name="diag">    7.23    7.25</time>
   <time name="diis">    9.79    9.84</time>
   <time name="orth">    1.11    1.12</time>
   <time name="total">   18.16   18.22</time>
   <energy>
    <i name="e_fr_energy">    -98.60716896 </i>
    <i name="e_wo_entrp">    -98.59312291 </i>
    <i name="e_0_energy">    -98.60014594 </i>
   </energy>
  </scstep>
  <scstep>
   <time name="diag">    7.24    7.27</time>
   <time name="diis">    9.70    9.73</time>
   <time name="orth">    1.12    1.13</time>
   <time name="total">   18.09   18.15</time>
   <energy>
    <i name="e_fr_energy">   -311.06207334 </i>
    <i name="e_wo_entrp">   -311.05443999 </i>
    <i name="e_0_energy">   -311.05825667 </i>
   </energy>
  </scstep>
  <scstep>
   <time name="diag">    7.28    7.31</time>
   <time name="diis">    9.70    9.73</time>
   <time name="orth">    1.11    1.11</time>
   <time name="total">   18.11   18.17</time>
   <energy>
    <i name="e_fr_energy">   -370.40299783 </i>
    <i name="e_wo_entrp">   -370.39386923 </i>
    <i name="e_0_energy">   -370.39843353 </i>
   </energy>
  </scstep>
  <scstep>
   <time name="diag">    7.23    7.25</time>
   <time name="diis">    9.71    9.78</time>
   <time name="orth">    1.11    1.11</time>
   <time name="total">   18.06   18.16</time>
   <energy>
    <i name="e_fr_energy">   -390.13655247 </i>
    <i name="e_wo_entrp">   -390.12968201 </i>
    <i name="e_0_energy">   -390.13311724 </i>
   </energy>
  </scstep>
  <scstep>
   <time name="diag">    7.24    7.26</time>
   <time name="diis">    9.69    9.72</time>
   <time name="orth">    1.11    1.12</time>
   <time name="total">   18.06   18.12</time>
   <energy>
    <i name="e_fr_energy">   -396.82686748 </i>
    <i name="e_wo_entrp">   -396.81995592 </i>
    <i name="e_0_energy">   -396.82341170 </i>
   </energy>
  </scstep>
  <scstep>
   <time name="diag">    7.25    7.27</time>
   <time name="diis">    9.71    9.75</time>
   <time name="orth">    1.11    1.11</time>
   <time name="total">   18.08   18.15</time>
   <energy>
    <i name="e_fr_energy">   -399.37769267 </i>
    <i name="e_wo_entrp">   -399.36968630 </i>
    <i name="e_0_energy">   -399.37368948 </i>
   </energy>
  </scstep>
  <scstep>
   <time name="diag">    7.24    7.26</time>
   <time name="diis">   23.66   23.75</time>
   <time name="orth">    1.11    1.11</time>
   <time name="total">   32.02   32.14</time>
   <energy>
    <i name="e_fr_energy">   -400.92450452 </i>
    <i name="e_wo_entrp">   -400.91429189 </i>
    <i name="e_0_energy">   -400.91939821 </i>
   </energy>
  </scstep>
  <scstep>
   <time name="diag">    7.24    7.26</time>
   <time name="diis">   25.60   25.73</time>
   <time name="orth">    1.11    1.12</time>
   <time name="total">   33.97   34.12</time>
   <energy>
    <i name="e_fr_energy">   -401.06554947 </i>
    <i name="e_wo_entrp">   -401.05459798 </i>
    <i name="e_0_energy">   -401.06007372 </i>
   </energy>
  </scstep>
  <scstep>
   <time name="diag">    7.23    7.25</time>
   <time name="diis">   23.63   23.72</time>
   <time name="orth">    1.12    1.12</time>
   <time name="total">   32.00   32.12</time>
   <energy>
    <i name="e_fr_energy">   -401.06888775 </i>
    <i name="e_wo_entrp">   -401.05794585 </i>
    <i name="e_0_energy">   -401.06341680 </i>
   </energy>
  </scstep>
  <scstep>
   <time name="diag">    7.23    7.25</time>
   <time name="diis">   19.73   19.80</time>
   <time name="orth">    1.11    1.11</time>
   <time name="total">   28.09   28.18</time>
   <energy>
    <i name="e_fr_energy">   -401.06947967 </i>
    <i name="e_wo_entrp">   -401.05853916 </i>
    <i name="e_0_energy">   -401.06400942 </i>
   </energy>
  </scstep>
  <scstep>
   <time name="diag">    7.23    7.25</time>
   <time name="diis">   17.00   17.16</time>
   <time name="orth">    1.11    1.11</time>
   <time name="total">   25.36   25.55</time>
   <energy>
    <i name="alphaZ">    372.54520999 </i>
    <i name="ewald">  38165.18647767 </i>
    <i name="hartreedc"> -46378.82763434 </i>
    <i name="XCdc">    720.76359215 </i>
    <i name="pawpsdc">  20731.70950387 </i>
    <i name="pawaedc"> -20769.13943555 </i>
    <i name="eentropy">     -0.01094044 </i>
    <i name="bandstr">  -1447.00835037 </i>
    <i name="atom">   8203.71208324 </i>
    <i name="e_fr_energy">   -401.06949376 </i>
    <i name="e_wo_entrp">   -401.05855332 </i>
    <i name="e_0_energy">   -401.06402354 </i>
   </energy>
  </scstep>
  <structure>
   <crystal>
    <varray name="basis" >
     <v>       4.26620007       0.00000000       0.00000000 </v>
     <v>       0.00000000      39.40950012       0.00000000 </v>
     <v>      -1.42206471       0.00000000       3.18109970 </v>
    </varray>
    <i name="volume">    534.83451311 </i>
    <varray name="rec_basis" >
     <v>       0.23440063       0.00000000       0.10478542 </v>
     <v>       0.00000000       0.02537459       0.00000000 </v>
     <v>       0.00000000       0.00000000       0.31435670 </v>
    </varray>
   </crystal>
   <varray name="positions" >
    <v>       0.99972635       0.00000783       0.00000000 </v>
    <v>       0.33324726       0.00000789       0.00000000 </v>
    <v>       0.49972635       0.03122317       0.00000000 </v>
    <v>       0.83324726       0.03122310       0.00000000 </v>
    <v>       0.99989858       0.06246133       0.00000000 </v>
    <v>       0.33301183       0.06245907       0.00000000 </v>
    <v>       0.49966823       0.09369861       0.00000000 </v>
    <v>       0.83324927       0.09370033       0.00000000 </v>
    <v>       0.99972692       0.12492436       0.00000000 </v>
    <v>       0.33326526       0.12492629       0.00000000 </v>
    <v>       0.49993855       0.15617451       0.00000000 </v>
    <v>       0.83312972       0.15617360       0.00000000 </v>
    <v>       0.99968157       0.18741802       0.00000000 </v>
    <v>       0.33345729       0.18742148       0.00000000 </v>
    <v>       0.49976508       0.21863473       0.00000000 </v>
    <v>       0.83340337       0.21863213       0.00000000 </v>
    <v>       0.99982960       0.24990082       0.00000000 </v>
    <v>       0.33333668       0.24990181       0.00000000 </v>
    <v>       0.49924169       0.28117075       0.00000000 </v>
    <v>       0.83390417       0.28116934       0.00000000 </v>
    <v>       0.00216473       0.31214964       0.00000000 </v>
    <v>       0.33091401       0.31214843       0.00000000 </v>
    <v>       0.50011866       0.34329153       0.00000000 </v>
    <v>       0.83287698       0.34329222       0.00000000 </v>
    <v>       0.00011866       0.68793945       0.00000000 </v>
    <v>       0.33287698       0.68793876       0.00000000 </v>
    <v>       0.50216473       0.71908037       0.00000000 </v>
    <v>       0.83091401       0.71908157       0.00000000 </v>
    <v>       0.99924169       0.75005929       0.00000000 </v>
    <v>       0.33390417       0.75006070       0.00000000 </v>
    <v>       0.49982960       0.78133017       0.00000000 </v>
    <v>       0.83333668       0.78132918       0.00000000 </v>
    <v>       0.99976508       0.81259525       0.00000000 </v>
    <v>       0.33340337       0.81259786       0.00000000 </v>
    <v>       0.49968157       0.84381198       0.00000000 </v>
    <v>       0.83345729       0.84380853       0.00000000 </v>
    <v>       0.99993855       0.87505551       0.00000000 </v>
    <v>       0.33312972       0.87505641       0.00000000 </v>
    <v>       0.49972692       0.90630566       0.00000000 </v>
    <v>       0.83326526       0.90630372       0.00000000 </v>
    <v>       0.99966823       0.93753236       0.00000000 </v>
    <v>       0.33324927       0.93753065       0.00000000 </v>
    <v>       0.49989858       0.96876969       0.00000000 </v>
    <v>       0.83301183       0.96877194       0.00000000 </v>
    <v>       0.92883304       0.37417703       0.00000000 </v>
    <v>       0.40408709       0.37417364       0.00000000 </v>
    <v>       0.42883310       0.65705395       0.00000000 </v>
    <v>       0.90408811       0.65705735       0.00000000 </v>
   </varray>
  </structure>
  <varray name="forces" >
   <v>      -0.08433233      -0.04341278      -0.28523277 </v>
   <v>       0.07988903      -0.04573763       0.28494410 </v>
   <v>      -0.08433233       0.04341278      -0.28523277 </v>
   <v>       0.07988903       0.04573763       0.28494410 </v>
   <v>      -0.13221718      -0.02906620      -0.28536049 </v>
   <v>       0.13497876      -0.02752462       0.28553756 </v>
   <v>      -0.09815302       0.00366549      -0.28677016 </v>
   <v>       0.10215548       0.00006421       0.28676708 </v>
   <v>      -0.06650343       0.03752066      -0.27991610 </v>
   <v>       0.06859418       0.03491081       0.27986235 </v>
   <v>      -0.11455981      -0.06562788      -0.28600826 </v>
   <v>       0.11296633      -0.06390590       0.28557826 </v>
   <v>      -0.13398819       0.05474957      -0.27730020 </v>
   <v>       0.13095987       0.05058442       0.27748851 </v>
   <v>       0.00423271      -0.01907341      -0.26954734 </v>
   <v>      -0.00538828      -0.01579295       0.26943843 </v>
   <v>      -0.13856286      -0.02245755      -0.25858571 </v>
   <v>       0.13789660      -0.02179452       0.25850370 </v>
   <v>      -0.07335349      -0.02248202      -0.24080923 </v>
   <v>       0.07037984      -0.02113666       0.24089500 </v>
   <v>       0.23535570      -0.00266627      -0.14294871 </v>
   <v>      -0.23535738      -0.00445077       0.14282491 </v>
   <v>      -0.87582773       0.94128873      -0.07207052 </v>
   <v>       0.87884556       0.94064242       0.07264598 </v>
   <v>      -0.87582773      -0.94128873      -0.07207052 </v>
   <v>       0.87884556      -0.94064242       0.07264598 </v>
   <v>       0.23535570       0.00266627      -0.14294871 </v>
   <v>      -0.23535738       0.00445077       0.14282491 </v>
   <v>      -0.07335349       0.02248202      -0.24080923 </v>
   <v>       0.07037984       0.02113666       0.24089500 </v>
   <v>      -0.13856286       0.02245755      -0.25858571 </v>
   <v>       0.13789660       0.02179452       0.25850370 </v>
   <v>       0.00423271       0.01907341      -0.26954734 </v>
   <v>      -0.00538828       0.01579295       0.26943843 </v>
   <v>      -0.13398819      -0.05474957      -0.27730020 </v>
   <v>       0.13095987      -0.05058442       0.27748851 </v>
   <v>      -0.11455981       0.06562788      -0.28600826 </v>
   <v>       0.11296633       0.06390590       0.28557826 </v>
   <v>      -0.06650343      -0.03752066      -0.27991610 </v>
   <v>       0.06859418      -0.03491081       0.27986235 </v>
   <v>      -0.09815302      -0.00366549      -0.28677016 </v>
   <v>       0.10215548      -0.00006421       0.28676708 </v>
   <v>      -0.13221718       0.02906620      -0.28536049 </v>
   <v>       0.13497876       0.02752462       0.28553756 </v>
   <v>       0.45767399      -1.45440357      -0.15618761 </v>
   <v>      -0.45568434      -1.45438935       0.15625121 </v>
   <v>       0.45767399       1.45440357      -0.15618761 </v>
   <v>      -0.45568434       1.45438935       0.15625121 </v>
  </varray>
  <energy>
   <i name="e_fr_energy">   -407.09603699 </i>
   <i name="e_wo_entrp">   -407.09056677 </i>
   <i name="e_0_energy">     -0.01094044 </i>
  </energy>
  <time name="totalsc">  310.67  312.01</time>
 </calculation>
 <calculation>
  <scstep>
   <time name="diag">    7.31    7.35</time>
   <time name="diis">   15.66   15.72</time>
   <time name="orth">    1.11    1.12</time>
   <time name="total">   24.14   24.24</time>
   <energy>
    <i name="alphaZ">    372.54520999 </i>
    <i name="ewald">  38165.18647767 </i>
    <i name="hartreedc"> -46378.82763434 </i>
    <i name="XCdc">    720.76359215 </i>
    <i name="pawpsdc">  20731.70950387 </i>
    <i name="pawaedc"> -20769.13943555 </i>
    <i name="eentropy">     -0.01094041 </i>
    <i name="bandstr">  -1447.00835442 </i>
    <i name="atom">   8203.71208324 </i>
    <i name="e_fr_energy">   -401.06949778 </i>
    <i name="e_wo_entrp">   -401.05855737 </i>
    <i name="e_0_energy">   -401.06402758 </i>
   </energy>
  </scstep>
  <scstep>
   <time name="diag">    7.23    7.26</time>
   <time name="diis">   14.73   14.81</time>
   <time name="orth">    1.11    1.12</time>
   <time name="total">   23.10   23.20</time>
   <energy>
    <i name="alphaZ">    372.54520999 </i>
    <i name="ewald">  38165.18647767 </i>
    <i name="hartreedc"> -46378.82763434 </i>
    <i name="XCdc">    720.76359215 </i>
    <i name="pawpsdc">  20731.70950387 </i>
    <i name="pawaedc"> -20769.13943555 </i>
    <i name="eentropy">     -0.01094041 </i>
    <i name="bandstr">  -1447.00835535 </i>
    <i name="atom">   8203.71208324 </i>
    <i name="e_fr_energy">   -401.06949872 </i>
    <i name="e_wo_entrp">   -401.05855830 </i>
    <i name="e_0_energy">   -401.06402851 </i>
   </energy>
  </scstep>
  <structure>
   <crystal>
    <varray name="basis" >
     <v>       4.26620007       0.00000000       0.00000000 </v>
     <v>       0.00000000      39.40950012       0.00000000 </v>
     <v>      -1.42206471       0.00000000       3.18109970 </v>
    </varray>
    <i name="volume">    534.83451311 </i>
    <varray name="rec_basis" >
     <v>       0.23440063       0.00000000       0.10478542 </v>
     <v>       0.00000000       0.02537459       0.00000000 </v>
     <v>       0.00000000       0.00000000       0.31435670 </v>
    </varray>
   </crystal>
   <varray name="positions" >
    <v>       0.99972635       0.00000783       0.00000000 </v>
    <v>       0.33324726       0.00000789       0.00000000 </v>
    <v>       0.49972635       0.03122317       0.00000000 </v>
    <v>       0.83324726       0.03122310       0.00000000 </v>
    <v>       0.99989858       0.06246133       0.00000000 </v>
    <v>       0.33301183       0.06245907       0.00000000 </v>
    <v>       0.49966823       0.09369861       0.00000000 </v>
    <v>       0.83324927       0.09370033       0.00000000 </v>
    <v>       0.99972692       0.12492436       0.00000000 </v>
    <v>       0.33326526       0.12492629       0.00000000 </v>
    <v>       0.49993855       0.15617451       0.00000000 </v>
    <v>       0.83312972       0.15617360       0.00000000 </v>
    <v>       0.99968157       0.18741802       0.00000000 </v>
    <v>       0.33345729       0.18742148       0.00000000 </v>
    <v>       0.49976508       0.21863473       0.00000000 </v>
    <v>       0.83340337       0.21863213       0.00000000 </v>
    <v>       0.99982960       0.24990082       0.00000000 </v>
    <v>       0.33333668       0.24990181       0.00000000 </v>
    <v>       0.49924169       0.28117075       0.00000000 </v>
    <v>       0.83390417       0.28116934       0.00000000 </v>
    <v>       0.00216473       0.31214964       0.00000000 </v>
    <v>       0.33091401       0.31214843       0.00000000 </v>
    <v>       0.50011866       0.34329153       0.00000000 </v>
    <v>       0.83287698       0.34329222       0.00000000 </v>
    <v>       0.00011866       0.68793945       0.00000000 </v>
    <v>       0.33287698       0.68793876       0.00000000 </v>
    <v>       0.50216473       0.71908037       0.00000000 </v>
    <v>       0.83091401       0.71908157       0.00000000 </v>
    <v>       0.99924169       0.75005929       0.00000000 </v>
    <v>       0.33390417       0.75006070       0.00000000 </v>
    <v>       0.49982960       0.78133017       0.00000000 </v>
    <v>       0.83333668       0.78132918       0.00000000 </v>
    <v>       0.99976508       0.81259525       0.00000000 </v>
    <v>       0.33340337       0.81259786       0.00000000 </v>
    <v>       0.49968157       0.84381198       0.00000000 </v>
    <v>       0.83345729       0.84380853       0.00000000 </v>
    <v>       0.99993855       0.87505551       0.00000000 </v>
    <v>       0.33312972       0.87505641       0.00000000 </v>
    <v>       0.49972692       0.90630566       0.00000000 </v>
    <v>       0.83326526       0.90630372       0.00000000 </v>
    <v>       0.99966823       0.93753236       0.00000000 </v>
    <v>       0.33324927       0.93753065       0.00000000 </v>
    <v>       0.49989858       0.96876969       0.00000000 </v>
    <v>       0.83301183       0.96877194       0.00000000 </v>
    <v>       0.92883304       0.37417703       0.00000000 </v>
    <v>       0.40408709       0.37417364       0.00000000 </v>
    <v>       0.42883310       0.65705395       0.00000000 </v>
    <v>       0.90408811       0.65705735       0.00000000 </v>
   </varray>
  </structure>
  <varray name="forces" >
   <v>      -0.08434535      -0.04340637      -0.28522997 </v>
   <v>       0.07990490      -0.04573704       0.28494593 </v>
   <v>      -0.08434535       0.04340637      -0.28522997 </v>
   <v>       0.07990490       0.04573704       0.28494593 </v>
   <v>      -0.13222778      -0.02906727      -0.28536281 </v>
   <v>       0.13498417      -0.02752409       0.28553719 </v>
   <v>      -0.09816415       0.00366567      -0.28677513 </v>
   <v>       0.10216127       0.00006347       0.28677314 </v>
   <v>      -0.06651756       0.03752276      -0.27991201 </v>
   <v>       0.06859245       0.03491039       0.27986278 </v>
   <v>      -0.11457155      -0.06562595      -0.28601269 </v>
   <v>       0.11297547      -0.06391915       0.28557619 </v>
   <v>      -0.13399192       0.05475407      -0.27729851 </v>
   <v>       0.13097127       0.05058664       0.27748711 </v>
   <v>       0.00422049      -0.01907041      -0.26954929 </v>
   <v>      -0.00538133      -0.01578670       0.26943795 </v>
   <v>      -0.13855752      -0.02246363      -0.25858438 </v>
   <v>       0.13788510      -0.02180394       0.25850731 </v>
   <v>      -0.07336426      -0.02248839      -0.24081358 </v>
   <v>       0.07039779      -0.02114114       0.24090540 </v>
   <v>       0.23533297      -0.00268306      -0.14295733 </v>
   <v>      -0.23533293      -0.00448070       0.14282464 </v>
   <v>      -0.87578651       0.94134133      -0.07207021 </v>
   <v>       0.87882510       0.94066961       0.07264279 </v>
   <v>      -0.87578651      -0.94134133      -0.07207021 </v>
   <v>       0.87882510      -0.94066961       0.07264279 </v>
   <v>       0.23533297       0.00268306      -0.14295733 </v>
   <v>      -0.23533293       0.00448070       0.14282464 </v>
   <v>      -0.07336426       0.02248839      -0.24081358 </v>
   <v>       0.07039779       0.02114114       0.24090540 </v>
   <v>      -0.13855752       0.02246363      -0.25858438 </v>
   <v>       0.13788510       0.02180394       0.25850731 </v>
   <v>       0.00422049       0.01907041      -0.26954929 </v>
   <v>      -0.00538133       0.01578670       0.26943795 </v>
   <v>      -0.13399192      -0.05475407      -0.27729851 </v>
   <v>       0.13097127      -0.05058664       0.27748711 </v>
   <v>      -0.11457155       0.06562595      -0.28601269 </v>
   <v>       0.11297547       0.06391915       0.28557619 </v>
   <v>      -0.06651756      -0.03752276      -0.27991201 </v>
   <v>       0.06859245      -0.03491039       0.27986278 </v>
   <v>      -0.09816415      -0.00366567      -0.28677513 </v>
   <v>       0.10216127      -0.00006347       0.28677314 </v>
   <v>      -0.13222778       0.02906727      -0.28536281 </v>
   <v>       0.13498417       0.02752409       0.28553719 </v>
   <v>       0.45766361      -1.45451739      -0.15618886 </v>
   <v>      -0.45567375      -1.45452529       0.15625435 </v>
   <v>       0.45766361       1.45451739      -0.15618886 </v>
   <v>      -0.45567375       1.45452529       0.15625435 </v>
  </varray>
  <energy>
   <i name="e_fr_energy">   -407.09604195 </i>
   <i name="e_wo_entrp">   -407.09057174 </i>
   <i name="e_0_energy">     -0.01094041 </i>
  </energy>
  <time name="totalsc">   59.85   60.11</time>
 </calculation>
 <calculation>
  <scstep>
   <time name="diag">    7.33    7.40</time>
   <time name="diis">   13.74   13.78</time>
   <time name="orth">    1.11    1.12</time>
   <time name="total">   22.24   22.36</time>
   <energy>
    <i name="alphaZ">    372.54520999 </i>
    <i name="ewald">  38165.18647767 </i>
    <i name="hartreedc"> -46378.82763434 </i>
    <i name="XCdc">    720.76359215 </i>
    <i name="pawpsdc">  20731.70950387 </i>
    <i name="pawaedc"> -20769.13943555 </i>
    <i name="eentropy">     -0.01094041 </i>
    <i name="bandstr">  -1447.00835566 </i>
    <i name="atom">   8203.71208324 </i>
    <i name="e_fr_energy">   -401.06949902 </i>
    <i name="e_wo_entrp">   -401.05855861 </i>
    <i name="e_0_energy">   -401.06402882 </i>
   </energy>
  </scstep>
  <scstep>
   <time name="diag">    7.23    7.26</time>
   <time name="diis">   13.06   13.11</time>
   <time name="orth">    1.12    1.12</time>
   <time name="total">   21.42   21.50</time>
   <energy>
    <i name="alphaZ">    372.54520999 </i>
    <i name="ewald">  38165.18647767 </i>
    <i name="hartreedc"> -46378.82763434 </i>
    <i name="XCdc">    720.76359215 </i>
    <i name="pawpsdc">  20731.70950387 </i>
    <i name="pawaedc"> -20769.13943555 </i>
    <i name="eentropy">     -0.01094041 </i>
    <i name="bandstr">  -1447.00835577 </i>
    <i name="atom">   8203.71208324 </i>
    <i name="e_fr_energy">   -401.06949914 </i>
    <i name="e_wo_entrp">   -401.05855872 </i>
    <i name="e_0_energy">   -401.06402893 </i>
   </energy>
  </scstep>
  <structure>
   <crystal>
    <varray name="basis" >
     <v>       4.26620007       0.00000000       0.00000000 </v>
     <v>       0.00000000      39.40950012       0.00000000 </v>
     <v>      -1.42206471       0.00000000       3.18109970 </v>
    </varray>
    <i name="volume">    534.83451311 </i>
    <varray name="rec_basis" >
     <v>       0.23440063       0.00000000       0.10478542 </v>
     <v>       0.00000000       0.02537459       0.00000000 </v>
     <v>       0.00000000       0.00000000       0.31435670 </v>
    </varray>
   </crystal>
   <varray name="positions" >
    <v>       0.99972635       0.00000783       0.00000000 </v>
    <v>       0.33324726       0.00000789       0.00000000 </v>
    <v>       0.49972635       0.03122317       0.00000000 </v>
    <v>       0.83324726       0.03122310       0.00000000 </v>
    <v>       0.99989858       0.06246133       0.00000000 </v>
    <v>       0.33301183       0.06245907       0.00000000 </v>
    <v>       0.49966823       0.09369861       0.00000000 </v>
    <v>       0.83324927       0.09370033       0.00000000 </v>
    <v>       0.99972692       0.12492436       0.00000000 </v>
    <v>       0.33326526       0.12492629       0.00000000 </v>
    <v>       0.49993855       0.15617451       0.00000000 </v>
    <v>       0.83312972       0.15617360       0.00000000 </v>
    <v>       0.99968157       0.18741802       0.00000000 </v>
    <v>       0.33345729       0.18742148       0.00000000 </v>
    <v>       0.49976508       0.21863473       0.00000000 </v>
    <v>       0.83340337       0.21863213       0.00000000 </v>
    <v>       0.99982960       0.24990082       0.00000000 </v>
    <v>       0.33333668       0.24990181       0.00000000 </v>
    <v>       0.49924169       0.28117075       0.00000000 </v>
    <v>       0.83390417       0.28116934       0.00000000 </v>
    <v>       0.00216473       0.31214964       0.00000000 </v>
    <v>       0.33091401       0.31214843       0.00000000 </v>
    <v>       0.50011866       0.34329153       0.00000000 </v>
    <v>       0.83287698       0.34329222       0.00000000 </v>
    <v>       0.00011866       0.68793945       0.00000000 </v>
    <v>       0.33287698       0.68793876       0.00000000 </v>
    <v>       0.50216473       0.71908037       0.00000000 </v>
    <v>       0.83091401       0.71908157       0.00000000 </v>
    <v>       0.99924169       0.75005929       0.00000000 </v>
    <v>       0.33390417       0.75006070       0.00000000 </v>
    <v>       0.49982960       0.78133017       0.00000000 </v>
    <v>       0.83333668       0.78132918       0.00000000 </v>
    <v>       0.99976508       0.81259525       0.00000000 </v>
    <v>       0.33340337       0.81259786       0.00000000 </v>
    <v>       0.49968157       0.84381198       0.00000000 </v>
    <v>       0.83345729       0.84380853       0.00000000 </v>
    <v>       0.99993855       0.87505551       0.00000000 </v>
    <v>       0.33312972       0.87505641       0.00000000 </v>
    <v>       0.49972692       0.90630566       0.00000000 </v>
    <v>       0.83326526       0.90630372       0.00000000 </v>
    <v>       0.99966823       0.93753236       0.00000000 </v>
    <v>       0.33324927       0.93753065       0.00000000 </v>
    <v>       0.49989858       0.96876969       0.00000000 </v>
    <v>       0.83301183       0.96877194       0.00000000 </v>
    <v>       0.92883304       0.37417703       0.00000000 </v>
    <v>       0.40408709       0.37417364       0.00000000 </v>
    <v>       0.42883310       0.65705395       0.00000000 </v>
    <v>       0.90408811       0.65705735       0.00000000 </v>
   </varray>
  </structure>
  <varray name="forces" >
   <v>      -0.08434842      -0.04340610      -0.28522971 </v>
   <v>       0.07990642      -0.04573838       0.28494691 </v>
   <v>      -0.08434842       0.04340610      -0.28522971 </v>
   <v>       0.07990642       0.04573838       0.28494691 </v>
   <v>      -0.13222981      -0.02906699      -0.28536295 </v>
   <v>       0.13498551      -0.02752373       0.28553789 </v>
   <v>      -0.09816642       0.00366647      -0.28677686 </v>
   <v>       0.10216318       0.00006507       0.28677381 </v>
   <v>      -0.06652039       0.03752333      -0.27991185 </v>
   <v>       0.06859270       0.03491065       0.27986298 </v>
   <v>      -0.11457507      -0.06562567      -0.28601302 </v>
   <v>       0.11297718      -0.06392021       0.28557752 </v>
   <v>      -0.13399303       0.05475568      -0.27729992 </v>
   <v>       0.13097280       0.05058605       0.27748675 </v>
   <v>       0.00422023      -0.01906916      -0.26955040 </v>
   <v>      -0.00538058      -0.01578464       0.26943864 </v>
   <v>      -0.13855705      -0.02246515      -0.25858485 </v>
   <v>       0.13788418      -0.02180627       0.25850776 </v>
   <v>      -0.07336238      -0.02248672      -0.24081356 </v>
   <v>       0.07039880      -0.02114069       0.24090869 </v>
   <v>       0.23533339      -0.00268145      -0.14296009 </v>
   <v>      -0.23533219      -0.00447774       0.14282470 </v>
   <v>      -0.87577668       0.94135001      -0.07207022 </v>
   <v>       0.87881704       0.94067686       0.07264179 </v>
   <v>      -0.87577668      -0.94135001      -0.07207022 </v>
   <v>       0.87881704      -0.94067686       0.07264179 </v>
   <v>       0.23533339       0.00268145      -0.14296009 </v>
   <v>      -0.23533219       0.00447774       0.14282470 </v>
   <v>      -0.07336238       0.02248672      -0.24081356 </v>
   <v>       0.07039880       0.02114069       0.24090869 </v>
   <v>      -0.13855705       0.02246515      -0.25858485 </v>
   <v>       0.13788418       0.02180627       0.25850776 </v>
   <v>       0.00422023       0.01906916      -0.26955040 </v>
   <v>      -0.00538058       0.01578464       0.26943864 </v>
   <v>      -0.13399303      -0.05475568      -0.27729992 </v>
   <v>       0.13097280      -0.05058605       0.27748675 </v>
   <v>      -0.11457507       0.06562567      -0.28601302 </v>
   <v>       0.11297718       0.06392021       0.28557752 </v>
   <v>      -0.06652039      -0.03752333      -0.27991185 </v>
   <v>       0.06859270      -0.03491065       0.27986298 </v>
   <v>      -0.09816642      -0.00366647      -0.28677686 </v>
   <v>       0.10216318      -0.00006507       0.28677381 </v>
   <v>      -0.13222981       0.02906699      -0.28536295 </v>
   <v>       0.13498551       0.02752373       0.28553789 </v>
   <v>       0.45766985      -1.45451721      -0.15618811 </v>
   <v>      -0.45567927      -1.45452572       0.15625412 </v>
   <v>       0.45766985       1.45451721      -0.15618811 </v>
   <v>      -0.45567927       1.45452572       0.15625412 </v>
  </varray>
  <energy>
   <i name="e_fr_energy">   -407.09604236 </i>
   <i name="e_wo_entrp">   -407.09057216 </i>
   <i name="e_0_energy">     -0.01094041 </i>
  </energy>
  <time name="totalsc">   52.81   53.04</time>
  <eigenvalues>
   <array>
    <dimension dim="1">band</dimension>
    <dimension dim="2">kpoint</dimension>
    <dimension dim="3">spin</dimension>
    <field>eigene</field>
    <field>occ</field>
    <set>
     <set comment="spin 1">
      <set comment="kpoint 1">
       <r>  -21.1858    1.0000 </r>
       <r>  -21.1791    1.0000 </r>
       <r>  -18.5863    1.0000 </r>
       <r>  -18.5796    1.0000 </r>
       <r>  -17.9348    1.0000 </r>
       <r>  -17.7980    1.0000 </r>
       <r>  -17.6098    1.0000 </r>
       <r>  -17.3505    1.0000 </r>
       <r>  -17.0184    1.0000 </r>
       <r>  -16.6125    1.0000 </r>
       <r>  -16.1439    1.0000 </r>
       <r>  -15.5995    1.0000 </r>
       <r>  -14.9951    1.0000 </r>
       <r>  -14.3318    1.0000 </r>
       <r>  -13.6177    1.0000 </r>
       <r>  -12.8644    1.0000 </r>
       <r>  -12.3763    1.0000 </r>
       <r>  -12.2625    1.0000 </r>
       <r>  -12.1115    1.0000 </r>
       <r>  -12.0964    1.0000 </r>
       <r>  -11.9008    1.0000 </r>
       <r>  -11.6279    1.0000 </r>
       <r>  -11.3956    1.0000 </r>
       <r>  -11.3538    1.0000 </r>
       <r>  -11.2902    1.0000 </r>
       <r>  -11.2896    1.0000 </r>
       <r>  -11.1811    1.0000 </r>
       <r>  -11.0735    1.0000 </r>
       <r>  -10.8962    1.0000 </r>
       <r>  -10.8754    1.0000 </r>
       <r>  -10.7954    1.0000 </r>
       <r>  -10.6789    1.0000 </r>
       <r>  -10.5984    1.0000 </r>
       <r>  -10.4302    1.0000 </r>
       <r>   -9.9110    1.0000 </r>
       <r>   -9.3350    1.0000 </r>
       <r>   -8.7062    1.0000 </r>
       <r>   -8.7033    1.0000 </r>
       <r>   -8.6330    1.0000 </r>
       <r>   -8.3319    1.0000 </r>
       <r>   -8.2862    1.0000 </r>
       <r>   -8.0274    1.0000 </r>
       <r>   -7.8320    1.0000 </r>
       <r>   -7.6553    1.0000 </r>
       <r>   -7.3045    1.0000 </r>
       <r>   -7.3010    1.0000 </r>
       <r>   -6.8895    1.0000 </r>
       <r>   -6.6973    1.0000 </r>
       <r>   -6.5451    1.0000 </r>
       <r>   -6.2089    1.0000 </r>
       <r>   -5.9921    1.0000 </r>
       <r>   -5.7713    1.0000 </r>
       <r>   -5.5972    1.0000 </r>
       <r>   -5.3063    1.0000 </r>
       <r>   -5.0463    1.0000 </r>
       <r>   -4.9903    1.0000 </r>
       <r>   -4.7987    1.0000 </r>
       <r>   -4.5729    1.0000 </r>
       <r>   -4.5113    1.0000 </r>
       <r>   -4.4979    1.0000 </r>
       <r>   -4.3790    1.0000 </r>
       <r>   -4.2625    1.0000 </r>
       <r>   -4.2178    1.0000 </r>
       <r>   -4.1768    1.0000 </r>
       <r>   -3.9123    1.0000 </r>
       <r>   -3.7587    1.0000 </r>
       <r>   -3.6438    1.0000 </r>
       <r>   -3.5799    1.0000 </r>
       <r>   -3.2068    1.0000 </r>
       <r>   -3.1850    1.0000 </r>
       <r>   -3.1522    1.0000 </r>
       <r>   -2.7257    1.0000 </r>
       <r>   -2.6841    1.0000 </r>
       <r>   -2.6445    1.0000 </r>
       <r>   -2.2215    1.0000 </r>
       <r>   -2.1659    1.0000 </r>
       <r>   -2.1346    1.0000 </r>
       <r>   -2.0865    1.0000 </r>
       <r>   -2.0774    1.0000 </r>
       <r>   -1.6963    1.0000 </r>
       <r>   -1.6694    1.0000 </r>
       <r>   -1.6622    1.0000 </r>
       <r>   -1.3834    1.0000 </r>
       <r>   -1.3295    1.0000 </r>
       <r>   -1.1156    1.0000 </r>
       <r>   -1.0917    1.0000 </r>
       <r>   -1.0631    1.0000 </r>
       <r>   -1.0272    1.0000 </r>
       <r>   -0.8545    1.0000 </r>
       <r>   -0.6071    1.0000 </r>
       <r>   -0.4336    1.0000 </r>
       <r>   -0.2735    1.0000 </r>
       <r>    0.1423    1.0000 </r>
       <r>    0.2092    1.0000 </r>
       <r>    0.6386    1.0000 </r>
       <r>    0.8439    1.0000 </r>
       <r>    1.1989    1.0000 </r>
       <r>    1.3946    1.0000 </r>
       <r>    1.4009    1.0000 </r>
       <r>    1.4425    1.0000 </r>
       <r>    1.8460    0.9999 </r>
       <r>    1.9728    0.5351 </r>
       <r>    2.3962    0.0000 </r>
       <r>    2.5497    0.0000 </r>
       <r>    2.7043    0.0000 </r>
       <r>    2.8997    0.0000 </r>
       <r>    2.9802    0.0000 </r>
       <r>    3.0137    0.0000 </r>
       <r>    3.0215    0.0000 </r>
       <r>    3.2524    0.0000 </r>
       <r>    3.2589    0.0000 </r>
       <r>    3.3151    0.0000 </r>
       <r>    4.1365    0.0000 </r>
       <r>    5.0093    0.0000 </r>
       <r>    5.9246    0.0000 </r>
       <r>    6.5815    0.0000 </r>
       <r>    6.6967    0.0000 </r>
       <r>    6.8389    0.0000 </r>
       <r>    6.8719    0.0000 </r>
       <r>    7.0393    0.0000 </r>
       <r>    7.2982    0.0000 </r>
       <r>    7.6099    0.0000 </r>
       <r>    7.8391    0.0000 </r>
       <r>    7.9496    0.0000 </r>
       <r>    8.3385    0.0000 </r>
       <r>    8.6722    0.0000 </r>
       <r>    8.8232    0.0000 </r>
       <r>    9.1110    0.0000 </r>
       <r>    9.1823    0.0000 </r>
       <r>    9.2328    0.0000 </r>
       <r>    9.6930    0.0000 </r>
       <r>    9.7588    0.0000 </r>
       <r>    9.8435    0.0000 </r>
       <r>   10.2201    0.0000 </r>
       <r>   10.2443    0.0000 </r>
       <r>   10.2966    0.0000 </r>
       <r>   10.3632    0.0000 </r>
       <r>   10.4418    0.0000 </r>
       <r>   10.5022    0.0000 </r>
       <r>   10.5437    0.0000 </r>
       <r>   10.6165    0.0000 </r>
       <r>   10.8899    0.0000 </r>
       <r>   11.0129    0.0000 </r>
       <r>   11.1331    0.0000 </r>
       <r>   11.1790    0.0000 </r>
       <r>   11.2780    0.0000 </r>
       <r>   11.3927    0.0000 </r>
       <r>   11.6709    0.0000 </r>
       <r>   11.9601    0.0000 </r>
       <r>   12.4072    0.0000 </r>
       <r>   12.5143    0.0000 </r>
       <r>   12.9802    0.0000 </r>
      </set>
      <set comment="kpoint 2">
       <r>  -21.1851    1.0000 </r>
       <r>  -21.1784    1.0000 </r>
       <r>  -18.5877    1.0000 </r>
       <r>  -18.5811    1.0000 </r>
       <r>  -17.9337    1.0000 </r>
       <r>  -17.7970    1.0000 </r>
       <r>  -17.6088    1.0000 </r>
       <r>  -17.3495    1.0000 </r>
       <r>  -17.0174    1.0000 </r>
       <r>  -16.6115    1.0000 </r>
       <r>  -16.1429    1.0000 </r>
       <r>  -15.5985    1.0000 </r>
       <r>  -14.9941    1.0000 </r>
       <r>  -14.3308    1.0000 </r>
       <r>  -13.6167    1.0000 </r>
       <r>  -12.8635    1.0000 </r>
       <r>  -12.3958    1.0000 </r>
       <r>  -12.2820    1.0000 </r>
       <r>  -12.1311    1.0000 </r>
       <r>  -12.0957    1.0000 </r>
       <r>  -11.9209    1.0000 </r>
       <r>  -11.6493    1.0000 </r>
       <r>  -11.3902    1.0000 </r>
       <r>  -11.3370    1.0000 </r>
       <r>  -11.3193    1.0000 </r>
       <r>  -11.2647    1.0000 </r>
       <r>  -11.1652    1.0000 </r>
       <r>  -11.0554    1.0000 </r>
       <r>  -10.9357    1.0000 </r>
       <r>  -10.8378    1.0000 </r>
       <r>  -10.7988    1.0000 </r>
       <r>  -10.6577    1.0000 </r>
       <r>  -10.5745    1.0000 </r>
       <r>  -10.4265    1.0000 </r>
       <r>   -9.9176    1.0000 </r>
       <r>   -9.3438    1.0000 </r>
       <r>   -8.7189    1.0000 </r>
       <r>   -8.6973    1.0000 </r>
       <r>   -8.6213    1.0000 </r>
       <r>   -8.3285    1.0000 </r>
       <r>   -8.2796    1.0000 </r>
       <r>   -8.0338    1.0000 </r>
       <r>   -7.8243    1.0000 </r>
       <r>   -7.6533    1.0000 </r>
       <r>   -7.3115    1.0000 </r>
       <r>   -7.2933    1.0000 </r>
       <r>   -6.8868    1.0000 </r>
       <r>   -6.6911    1.0000 </r>
       <r>   -6.5521    1.0000 </r>
       <r>   -6.2040    1.0000 </r>
       <r>   -5.9889    1.0000 </r>
       <r>   -5.7781    1.0000 </r>
       <r>   -5.5924    1.0000 </r>
       <r>   -5.3039    1.0000 </r>
       <r>   -5.0435    1.0000 </r>
       <r>   -4.9960    1.0000 </r>
       <r>   -4.7967    1.0000 </r>
       <r>   -4.5700    1.0000 </r>
[...]
       <r>   -13.7154     2.8223    17.2378 </r>
       <r>   -13.5851     3.1912    17.6533 </r>
       <r>   -13.4549     4.7511    18.2721 </r>
       <r>   -13.3247     3.7175    18.7562 </r>
       <r>   -13.1945     3.3578    19.1935 </r>
       <r>   -13.0642     3.2066    19.6111 </r>
       <r>   -12.9340     3.0952    20.0142 </r>
       <r>   -12.8038     4.3445    20.5800 </r>
       <r>   -12.6735     5.1781    21.2543 </r>
       <r>   -12.5433     3.3775    21.6942 </r>
       <r>   -12.4131     3.2847    22.1220 </r>
       <r>   -12.2828     2.2032    22.4089 </r>
       <r>   -12.1526     3.1890    22.8242 </r>
       <r>   -12.0224     5.4834    23.5383 </r>
       <r>   -11.8922     4.8871    24.1747 </r>
       <r>   -11.7619     2.1765    24.4582 </r>
       <r>   -11.6317     2.7286    24.8135 </r>
       <r>   -11.5015     1.5491    25.0153 </r>
       <r>   -11.3712     1.6269    25.2272 </r>
       <r>   -11.2410     3.5581    25.6905 </r>
       <r>   -11.1108     3.6451    26.1652 </r>
       <r>   -10.9805     3.4714    26.6173 </r>
       <r>   -10.8503     4.5407    27.2087 </r>
       <r>   -10.7201     2.8212    27.5761 </r>
       <r>   -10.5898     3.7085    28.0590 </r>
       <r>   -10.4596     4.4967    28.6446 </r>
       <r>   -10.3294     4.9216    29.2856 </r>
       <r>   -10.1992     5.0355    29.9414 </r>
       <r>   -10.0689     3.2372    30.3629 </r>
       <r>    -9.9387     4.1077    30.8979 </r>
       <r>    -9.8085     4.4878    31.4824 </r>
       <r>    -9.6782     2.5383    31.8129 </r>
       <r>    -9.5480     3.3525    32.2495 </r>
       <r>    -9.4178     3.8908    32.7562 </r>
       <r>    -9.2875     4.3687    33.3251 </r>
       <r>    -9.1573     3.6368    33.7988 </r>
       <r>    -9.0271     1.6461    34.0131 </r>
       <r>    -8.8968     2.5396    34.3439 </r>
       <r>    -8.7666     3.9118    34.8533 </r>
       <r>    -8.6364     4.1499    35.3938 </r>
       <r>    -8.5062     4.4646    35.9752 </r>
       <r>    -8.3759     3.7192    36.4595 </r>
       <r>    -8.2457     2.8796    36.8345 </r>
       <r>    -8.1155     4.2249    37.3848 </r>
       <r>    -7.9852     5.2457    38.0679 </r>
       <r>    -7.8550     4.2077    38.6159 </r>
       <r>    -7.7248     3.4024    39.0590 </r>
       <r>    -7.5945     5.1622    39.7312 </r>
       <r>    -7.4643     3.7082    40.2142 </r>
       <r>    -7.3341     4.4788    40.7974 </r>
       <r>    -7.2038     5.0654    41.4571 </r>
       <r>    -7.0736     3.9710    41.9742 </r>
       <r>    -6.9434     4.7969    42.5989 </r>
       <r>    -6.8132     4.1114    43.1344 </r>
       <r>    -6.6829     4.7980    43.7592 </r>
       <r>    -6.5527     4.8948    44.3967 </r>
       <r>    -6.4225     5.3664    45.0956 </r>
       <r>    -6.2922     5.3015    45.7860 </r>
       <r>    -6.1620     3.4394    46.2339 </r>
       <r>    -6.0318     4.8024    46.8593 </r>
       <r>    -5.9015     5.8756    47.6245 </r>
       <r>    -5.7713     6.4561    48.4653 </r>
       <r>    -5.6411     5.2517    49.1492 </r>
       <r>    -5.5108     5.7029    49.8919 </r>
       <r>    -5.3806     5.5975    50.6209 </r>
       <r>    -5.2504     5.6897    51.3618 </r>
       <r>    -5.1202     6.6346    52.2259 </r>
       <r>    -4.9899     5.9443    53.0000 </r>
       <r>    -4.8597     9.1548    54.1922 </r>
       <r>    -4.7295     7.1162    55.1190 </r>
       <r>    -4.5992     9.5579    56.3637 </r>
       <r>    -4.4690     9.8787    57.6502 </r>
       <r>    -4.3388    13.3147    59.3842 </r>
       <r>    -4.2085    14.3009    61.2466 </r>
       <r>    -4.0783    12.0841    62.8203 </r>
       <r>    -3.9481    11.3819    64.3026 </r>
       <r>    -3.8179    11.2277    65.7648 </r>
       <r>    -3.6876    10.9480    67.1906 </r>
       <r>    -3.5574     7.8071    68.2073 </r>
       <r>    -3.4272    11.9660    69.7656 </r>
       <r>    -3.2969     9.4473    70.9960 </r>
       <r>    -3.1667     7.1804    71.9311 </r>
       <r>    -3.0365     9.6391    73.1864 </r>
       <r>    -2.9062    10.8079    74.5939 </r>
       <r>    -2.7760     6.4420    75.4328 </r>
       <r>    -2.6458     6.6677    76.3012 </r>
       <r>    -2.5155    10.8354    77.7123 </r>
       <r>    -2.3853     7.3650    78.6714 </r>
       <r>    -2.2551     5.9007    79.4399 </r>
       <r>    -2.1249     9.5745    80.6868 </r>
       <r>    -1.9946     8.0133    81.7303 </r>
       <r>    -1.8644     7.5325    82.7113 </r>
       <r>    -1.7342     8.3455    83.7981 </r>
       <r>    -1.6039     8.0770    84.8500 </r>
       <r>    -1.4737     7.0431    85.7672 </r>
       <r>    -1.3435     6.4319    86.6049 </r>
       <r>    -1.2132     5.3199    87.2977 </r>
       <r>    -1.0830     3.8657    87.8011 </r>
       <r>    -0.9528     5.8568    88.5639 </r>
       <r>    -0.8225     5.9030    89.3326 </r>
       <r>    -0.6923     4.0093    89.8548 </r>
       <r>    -0.5621     4.8352    90.4844 </r>
       <r>    -0.4319    12.4114    92.1008 </r>
       <r>    -0.3016    12.1214    93.6794 </r>
       <r>    -0.1714     6.0815    94.4714 </r>
       <r>    -0.0412     3.9618    94.9873 </r>
       <r>     0.0891     3.7264    95.4726 </r>
       <r>     0.2193     4.4495    96.0521 </r>
       <r>     0.3495     3.5885    96.5194 </r>
       <r>     0.4798     1.6075    96.7287 </r>
       <r>     0.6100     1.7275    96.9537 </r>
       <r>     0.7402     1.9917    97.2131 </r>
       <r>     0.8705     1.7116    97.4360 </r>
       <r>     1.0007     1.4463    97.6244 </r>
       <r>     1.1309     0.7119    97.7171 </r>
       <r>     1.2611     0.9676    97.8431 </r>
       <r>     1.3914     0.5121    97.9098 </r>
       <r>     1.5216     0.6065    97.9888 </r>
       <r>     1.6518     0.0864    98.0000 </r>
       <r>     1.7821     0.0001    98.0000 </r>
       <r>     1.9123     0.4373    98.0570 </r>
       <r>     2.0425     3.7797    98.5492 </r>
       <r>     2.1728    11.8116   100.0874 </r>
       <r>     2.3030     4.7125   100.7011 </r>
       <r>     2.4332     1.2682   100.8663 </r>
       <r>     2.5635     1.8138   101.1025 </r>
       <r>     2.6937     2.6096   101.4424 </r>
       <r>     2.8239     2.5611   101.7759 </r>
       <r>     2.9541     2.9580   102.1611 </r>
       <r>     3.0844     5.2650   102.8468 </r>
       <r>     3.2146     5.2381   103.5289 </r>
       <r>     3.3448     3.2701   103.9548 </r>
       <r>     3.4751     4.3817   104.5254 </r>
       <r>     3.6053     3.7382   105.0123 </r>
       <r>     3.7355     3.3698   105.4511 </r>
       <r>     3.8658     3.6258   105.9233 </r>
       <r>     3.9960     4.9664   106.5701 </r>
       <r>     4.1262     5.2374   107.2522 </r>
       <r>     4.2564     4.0624   107.7812 </r>
       <r>     4.3867     3.3414   108.2164 </r>
       <r>     4.5169     4.3380   108.7813 </r>
       <r>     4.6471     3.8340   109.2806 </r>
       <r>     4.7774     2.1379   109.5590 </r>
       <r>     4.9076     1.6859   109.7786 </r>
       <r>     5.0378     4.9637   110.4250 </r>
       <r>     5.1681     4.1985   110.9718 </r>
       <r>     5.2983     2.8822   111.3471 </r>
       <r>     5.4285     1.8525   111.5884 </r>
       <r>     5.5588     1.2597   111.7524 </r>
       <r>     5.6890     2.8910   112.1289 </r>
       <r>     5.8192     3.6289   112.6015 </r>
       <r>     5.9494     3.5196   113.0599 </r>
       <r>     6.0797     2.6372   113.4033 </r>
       <r>     6.2099     1.0529   113.5404 </r>
       <r>     6.3401     2.2030   113.8273 </r>
       <r>     6.4704     2.7558   114.1862 </r>
       <r>     6.6006     2.7372   114.5427 </r>
       <r>     6.7308     3.9989   115.0635 </r>
       <r>     6.8611     4.2920   115.6224 </r>
       <r>     6.9913     5.1152   116.2886 </r>
       <r>     7.1215     4.2085   116.8366 </r>
       <r>     7.2518     3.9467   117.3506 </r>
       <r>     7.3820     4.2214   117.9004 </r>
       <r>     7.5122     4.2128   118.4490 </r>
       <r>     7.6424     4.0451   118.9758 </r>
       <r>     7.7727     5.2305   119.6570 </r>
       <r>     7.9029     5.0413   120.3135 </r>
       <r>     8.0331     3.9974   120.8341 </r>
       <r>     8.1634     4.6788   121.4434 </r>
       <r>     8.2936     4.1398   121.9825 </r>
       <r>     8.4238     4.2541   122.5366 </r>
       <r>     8.5541     4.8165   123.1638 </r>
       <r>     8.6843     4.5549   123.7570 </r>
       <r>     8.8145     4.6429   124.3616 </r>
       <r>     8.9448     5.4957   125.0773 </r>
       <r>     9.0750     4.1838   125.6222 </r>
       <r>     9.2052     5.8998   126.3905 </r>
       <r>     9.3354     5.6275   127.1234 </r>
       <r>     9.4657     6.1146   127.9197 </r>
       <r>     9.5959     7.4615   128.8914 </r>
       <r>     9.7261    10.0597   130.2015 </r>
       <r>     9.8564    10.9443   131.6268 </r>
       <r>     9.9866     9.0339   132.8033 </r>
       <r>    10.1168     8.8153   133.9513 </r>
       <r>    10.2471    12.8857   135.6294 </r>
       <r>    10.3773    17.6738   137.9311 </r>
       <r>    10.5075    17.1065   140.1589 </r>
       <r>    10.6377    11.9770   141.7187 </r>
       <r>    10.7680    10.1039   143.0345 </r>
       <r>    10.8982     8.9425   144.1991 </r>
       <r>    11.0284     8.4062   145.2938 </r>
       <r>    11.1587     6.8469   146.1855 </r>
       <r>    11.2889     6.8519   147.0778 </r>
       <r>    11.4191     6.7009   147.9505 </r>
       <r>    11.5494     5.6223   148.6827 </r>
       <r>    11.6796     4.3457   149.2486 </r>
       <r>    11.8098     4.2823   149.8063 </r>
       <r>    11.9401     3.7266   150.2916 </r>
       <r>    12.0703     2.6961   150.6428 </r>
       <r>    12.2005     2.3170   150.9445 </r>
       <r>    12.3307     2.2517   151.2377 </r>
       <r>    12.4610     2.1120   151.5128 </r>
       <r>    12.5912     1.3058   151.6829 </r>
       <r>    12.7214     0.8761   151.7969 </r>
       <r>    12.8517     0.6173   151.8773 </r>
       <r>    12.9819     0.4126   151.9311 </r>
       <r>    13.1121     0.1341   151.9485 </r>
       <r>    13.2424     0.0751   151.9583 </r>
       <r>    13.3726     0.0010   151.9584 </r>
       <r>    13.5028     0.0677   151.9673 </r>
       <r>    13.6331     0.1198   151.9829 </r>
       <r>    13.7633     0.0037   151.9833 </r>
       <r>    13.8935     0.0000   151.9833 </r>
       <r>    14.0237     0.0000   151.9833 </r>
       <r>    14.1540     0.0003   151.9834 </r>
       <r>    14.2842     0.0597   151.9911 </r>
       <r>    14.4144     0.0674   151.9999 </r>
       <r>    14.5447     0.0006   152.0000 </r>
       <r>    14.6749     0.0000   152.0000 </r>
       <r>    14.8051     0.0000   152.0000 </r>
       <r>    14.9354     0.0000   152.0000 </r>
       <r>    15.0656     0.0000   152.0000 </r>
       <r>    15.1958     0.0000   152.0000 </r>
       <r>    15.3261     0.0000   152.0000 </r>
       <r>    15.4563     0.0000   152.0000 </r>
       <r>    15.5865     0.0000   152.0000 </r>
       <r>    15.7167     0.0000   152.0000 </r>
       <r>    15.8470     0.0000   152.0000 </r>
       <r>    15.9772     0.0000   152.0000 </r>
       <r>    16.1074     0.0000   152.0000 </r>
      </set>
     </set>
    </array>
   </total>
  </dos>
 </calculation>
 <structure name="finalpos" >
  <crystal>
   <varray name="basis" >
    <v>       4.26620007       0.00000000       0.00000000 </v>
    <v>       0.00000000      39.40950012       0.00000000 </v>
    <v>      -1.42206471       0.00000000       3.18109970 </v>
   </varray>
   <i name="volume">    534.83451311 </i>
   <varray name="rec_basis" >
    <v>       0.23440063       0.00000000       0.10478542 </v>
    <v>       0.00000000       0.02537459       0.00000000 </v>
    <v>       0.00000000       0.00000000       0.31435670 </v>
   </varray>
  </crystal>
  <varray name="positions" >
   <v>       0.99972635       0.00000783       0.00000000 </v>
   <v>       0.33324726       0.00000789       0.00000000 </v>
   <v>       0.49972635       0.03122317       0.00000000 </v>
   <v>       0.83324726       0.03122310       0.00000000 </v>
   <v>       0.99989858       0.06246133       0.00000000 </v>
   <v>       0.33301183       0.06245907       0.00000000 </v>
   <v>       0.49966823       0.09369861       0.00000000 </v>
   <v>       0.83324927       0.09370033       0.00000000 </v>
   <v>       0.99972692       0.12492436       0.00000000 </v>
   <v>       0.33326526       0.12492629       0.00000000 </v>
   <v>       0.49993855       0.15617451       0.00000000 </v>
   <v>       0.83312972       0.15617360       0.00000000 </v>
   <v>       0.99968157       0.18741802       0.00000000 </v>
   <v>       0.33345729       0.18742148       0.00000000 </v>
   <v>       0.49976508       0.21863473       0.00000000 </v>
   <v>       0.83340337       0.21863213       0.00000000 </v>
   <v>       0.99982960       0.24990082       0.00000000 </v>
   <v>       0.33333668       0.24990181       0.00000000 </v>
   <v>       0.49924169       0.28117075       0.00000000 </v>
   <v>       0.83390417       0.28116934       0.00000000 </v>
   <v>       0.00216473       0.31214964       0.00000000 </v>
   <v>       0.33091401       0.31214843       0.00000000 </v>
   <v>       0.50011866       0.34329153       0.00000000 </v>
   <v>       0.83287698       0.34329222       0.00000000 </v>
   <v>       0.00011866       0.68793945       0.00000000 </v>
   <v>       0.33287698       0.68793876       0.00000000 </v>
   <v>       0.50216473       0.71908037       0.00000000 </v>
   <v>       0.83091401       0.71908157       0.00000000 </v>
   <v>       0.99924169       0.75005929       0.00000000 </v>
   <v>       0.33390417       0.75006070       0.00000000 </v>
   <v>       0.49982960       0.78133017       0.00000000 </v>
   <v>       0.83333668       0.78132918       0.00000000 </v>
   <v>       0.99976508       0.81259525       0.00000000 </v>
   <v>       0.33340337       0.81259786       0.00000000 </v>
   <v>       0.49968157       0.84381198       0.00000000 </v>
   <v>       0.83345729       0.84380853       0.00000000 </v>
   <v>       0.99993855       0.87505551       0.00000000 </v>
   <v>       0.33312972       0.87505641       0.00000000 </v>
   <v>       0.49972692       0.90630566       0.00000000 </v>
   <v>       0.83326526       0.90630372       0.00000000 </v>
   <v>       0.99966823       0.93753236       0.00000000 </v>
   <v>       0.33324927       0.93753065       0.00000000 </v>
   <v>       0.49989858       0.96876969       0.00000000 </v>
   <v>       0.83301183       0.96877194       0.00000000 </v>
   <v>       0.92883304       0.37417703       0.00000000 </v>
   <v>       0.40408709       0.37417364       0.00000000 </v>
   <v>       0.42883310       0.65705395       0.00000000 </v>
   <v>       0.90408811       0.65705735       0.00000000 </v>
  </varray>
  <varray name="selective"  type="logical" >
   <v type="logical" >  T  T  F </v>
   <v type="logical" >  T  T  F </v>
   <v type="logical" >  T  T  F </v>
   <v type="logical" >  T  T  F </v>
   <v type="logical" >  T  T  F </v>
   <v type="logical" >  T  T  F </v>
   <v type="logical" >  T  T  F </v>
   <v type="logical" >  T  T  F </v>
   <v type="logical" >  T  T  F </v>
   <v type="logical" >  T  T  F </v>
   <v type="logical" >  T  T  F </v>
   <v type="logical" >  T  T  F </v>
   <v type="logical" >  T  T  F </v>
   <v type="logical" >  T  T  F </v>
   <v type="logical" >  T  T  F </v>
   <v type="logical" >  T  T  F </v>
   <v type="logical" >  T  T  F </v>
   <v type="logical" >  T  T  F </v>
   <v type="logical" >  T  T  F </v>
   <v type="logical" >  T  T  F </v>
   <v type="logical" >  T  T  F </v>
   <v type="logical" >  T  T  F </v>
   <v type="logical" >  T  T  F </v>
   <v type="logical" >  T  T  F </v>
   <v type="logical" >  T  T  F </v>
   <v type="logical" >  T  T  F </v>
   <v type="logical" >  T  T  F </v>
   <v type="logical" >  T  T  F </v>
   <v type="logical" >  T  T  F </v>
   <v type="logical" >  T  T  F </v>
   <v type="logical" >  T  T  F </v>
   <v type="logical" >  T  T  F </v>
   <v type="logical" >  T  T  F </v>
   <v type="logical" >  T  T  F </v>
   <v type="logical" >  T  T  F </v>
   <v type="logical" >  T  T  F </v>
   <v type="logical" >  T  T  F </v>
   <v type="logical" >  T  T  F </v>
   <v type="logical" >  T  T  F </v>
   <v type="logical" >  T  T  F </v>
   <v type="logical" >  T  T  F </v>
   <v type="logical" >  T  T  F </v>
   <v type="logical" >  T  T  F </v>
   <v type="logical" >  T  T  F </v>
   <v type="logical" >  T  T  F </v>
   <v type="logical" >  T  T  F </v>
   <v type="logical" >  T  T  F </v>
   <v type="logical" >  T  T  F </v>
  </varray>
  <varray name="velocities" >
   <v>       0.00000000       0.00000000       0.00000000 </v>
   <v>       0.00000000       0.00000000       0.00000000 </v>
   <v>       0.00000000       0.00000000       0.00000000 </v>
   <v>       0.00000000       0.00000000       0.00000000 </v>
   <v>       0.00000000       0.00000000       0.00000000 </v>
   <v>       0.00000000       0.00000000       0.00000000 </v>
   <v>       0.00000000       0.00000000       0.00000000 </v>
   <v>       0.00000000       0.00000000       0.00000000 </v>
   <v>       0.00000000       0.00000000       0.00000000 </v>
   <v>       0.00000000       0.00000000       0.00000000 </v>
   <v>       0.00000000       0.00000000       0.00000000 </v>
   <v>       0.00000000       0.00000000       0.00000000 </v>
   <v>       0.00000000       0.00000000       0.00000000 </v>
   <v>       0.00000000       0.00000000       0.00000000 </v>
   <v>       0.00000000       0.00000000       0.00000000 </v>
   <v>       0.00000000       0.00000000       0.00000000 </v>
   <v>       0.00000000       0.00000000       0.00000000 </v>
   <v>       0.00000000       0.00000000       0.00000000 </v>
   <v>       0.00000000       0.00000000       0.00000000 </v>
   <v>       0.00000000       0.00000000       0.00000000 </v>
   <v>       0.00000000       0.00000000       0.00000000 </v>
   <v>       0.00000000       0.00000000       0.00000000 </v>
   <v>       0.00000000       0.00000000       0.00000000 </v>
   <v>       0.00000000       0.00000000       0.00000000 </v>
   <v>       0.00000000       0.00000000       0.00000000 </v>
   <v>       0.00000000       0.00000000       0.00000000 </v>
   <v>       0.00000000       0.00000000       0.00000000 </v>
   <v>       0.00000000       0.00000000       0.00000000 </v>
   <v>       0.00000000       0.00000000       0.00000000 </v>
   <v>       0.00000000       0.00000000       0.00000000 </v>
   <v>       0.00000000       0.00000000       0.00000000 </v>
   <v>       0.00000000       0.00000000       0.00000000 </v>
   <v>       0.00000000       0.00000000       0.00000000 </v>
   <v>       0.00000000       0.00000000       0.00000000 </v>
   <v>       0.00000000       0.00000000       0.00000000 </v>
   <v>       0.00000000       0.00000000       0.00000000 </v>
   <v>       0.00000000       0.00000000       0.00000000 </v>
   <v>       0.00000000       0.00000000       0.00000000 </v>
   <v>       0.00000000       0.00000000       0.00000000 </v>
   <v>       0.00000000       0.00000000       0.00000000 </v>
   <v>       0.00000000       0.00000000       0.00000000 </v>
   <v>       0.00000000       0.00000000       0.00000000 </v>
   <v>       0.00000000       0.00000000       0.00000000 </v>
   <v>       0.00000000       0.00000000       0.00000000 </v>
   <v>       0.00000000       0.00000000       0.00000000 </v>
   <v>       0.00000000       0.00000000       0.00000000 </v>
   <v>       0.00000000       0.00000000       0.00000000 </v>
   <v>       0.00000000       0.00000000       0.00000000 </v>
  </varray>
  <nose>
   <v>      -3.00000000       0.00000000       0.00010000       0.00010000 </v>
  </nose>
 </structure>
</modeling>
