       N       E                     dE             d eps       ncg     rms          rms(c)
RMM:   1     0.217070119373E+04    0.21707E+04   -0.67469E+04  2432   0.908E+02
RMM:   2     0.441815057936E+03   -0.17289E+04   -0.18375E+04  2432   0.234E+02
RMM:   3    -0.145939311910E+03   -0.58775E+03   -0.57593E+03  2432   0.140E+02
RMM:   4    -0.349844066205E+03   -0.20390E+03   -0.16365E+03  2432   0.896E+01
RMM:   5    -0.404593088234E+03   -0.54749E+02   -0.47258E+02  2432   0.487E+01
RMM:   6    -0.422581911980E+03   -0.17989E+02   -0.15435E+02  2432   0.287E+01
RMM:   7    -0.428603911761E+03   -0.60220E+01   -0.55318E+01  2432   0.167E+01
RMM:   8    -0.430917895049E+03   -0.23140E+01   -0.21126E+01  2432   0.104E+01
RMM:   9    -0.432336178260E+03   -0.14183E+01   -0.13729E+01  5391   0.631E+00
RMM:  10    -0.432463651073E+03   -0.12747E+00   -0.11357E+00  6054   0.173E+00
RMM:  11    -0.432466883127E+03   -0.32321E-02   -0.26731E-02  5290   0.256E-01
RMM:  12    -0.432467319415E+03   -0.43629E-03   -0.41574E-03  4156   0.808E-02    0.436E+01
RMM:  13    -0.306511608693E+03    0.12596E+03   -0.19899E+02  4864   0.275E+01    0.280E+01
RMM:  14    -0.295086687264E+03    0.11425E+02   -0.17892E+01  4870   0.982E+00    0.259E+01
RMM:  15    -0.322331400121E+03   -0.27245E+02   -0.87759E+00  4921   0.585E+00    0.391E+01
RMM:  16    -0.267134103655E+03    0.55197E+02   -0.11464E+01  4875   0.729E+00    0.199E+01
RMM:  17    -0.267651281745E+03   -0.51718E+00   -0.23702E+00  4878   0.385E+00    0.168E+01
RMM:  18    -0.276307064951E+03   -0.86558E+01   -0.15990E+00  4907   0.281E+00    0.174E+01
RMM:  19    -0.278327100619E+03   -0.20200E+01   -0.38453E-01  4892   0.161E+00    0.149E+01
RMM:  20    -0.325892080425E+03   -0.47565E+02   -0.17424E+01  4865   0.947E+00    0.149E+01
RMM:  21    -0.364748749765E+03   -0.38857E+02   -0.19503E+01  4870   0.101E+01    0.186E+01
RMM:  22    -0.376681245823E+03   -0.11932E+02   -0.55670E+00  4881   0.521E+00    0.161E+01
RMM:  23    -0.407974832496E+03   -0.31294E+02   -0.68687E+01  4865   0.110E+01    0.795E+00
RMM:  24    -0.414107188954E+03   -0.61324E+01   -0.47033E+00  4875   0.379E+00    0.577E+00
RMM:  25    -0.416644000345E+03   -0.25368E+01   -0.11244E+00  4882   0.194E+00    0.437E+00
RMM:  26    -0.419193846532E+03   -0.25498E+01   -0.12443E+00  4887   0.214E+00    0.323E+00
RMM:  27    -0.421844786686E+03   -0.26509E+01   -0.17683E+00  4879   0.243E+00    0.268E+00
RMM:  28    -0.422553807905E+03   -0.70902E+00   -0.51673E-01  4875   0.113E+00    0.255E+00
RMM:  29    -0.422982865721E+03   -0.42906E+00   -0.15234E-01  4889   0.779E-01    0.164E+00
RMM:  30    -0.423299521052E+03   -0.31666E+00   -0.85874E-02  4872   0.506E-01    0.138E+00
RMM:  31    -0.423349476061E+03   -0.49955E-01   -0.16776E-02  4895   0.257E-01    0.115E+00
RMM:  32    -0.423368223646E+03   -0.18748E-01   -0.70467E-03  4871   0.173E-01    0.853E-01
RMM:  33    -0.423462420119E+03   -0.94196E-01   -0.24519E-02  4877   0.303E-01    0.564E-01
RMM:  34    -0.423473635731E+03   -0.11216E-01   -0.19118E-03  4843   0.872E-02    0.456E-01
RMM:  35    -0.423477042656E+03   -0.34069E-02   -0.15182E-03  4822   0.853E-02    0.386E-01
RMM:  36    -0.423470507344E+03    0.65353E-02   -0.30745E-03  4782   0.118E-01    0.372E-01
RMM:  37    -0.423464749764E+03    0.57576E-02   -0.17725E-03  4421   0.826E-02    0.210E-01
RMM:  38    -0.423470983386E+03   -0.62336E-02   -0.61927E-04  3938   0.473E-02    0.119E-01
RMM:  39    -0.423476653345E+03   -0.56700E-02   -0.21278E-04  3333   0.315E-02    0.912E-02
RMM:  40    -0.423477461299E+03   -0.80795E-03   -0.13289E-04  3130   0.248E-02    0.257E-02
RMM:  41    -0.423477491107E+03   -0.29807E-04   -0.47805E-05  2997   0.164E-02
   1 F= -.42950403E+03 E0= -.42949992E+03  d E =-.429504E+03  mag=     0.1390
