 vasp.5.4.4.18Apr17-6-g9f103f2a35 (build Oct 03 2018 13:58:34) complex          
  
 executed on             LinuxIFC date 2022.02.07  15:55:37
 running on   40 total cores
 distrk:  each k-point on   40 cores,    1 groups
 distr:  one band on NCORES_PER_BAND=  10 cores,    4 groups


--------------------------------------------------------------------------------------------------------


 INCAR:
 POTCAR:    PAW_PBE C 08Apr2002                   
 POTCAR:    PAW_PBE O 08Apr2002                   
 POTCAR:    PAW_PBE C 08Apr2002                   
   VRHFIN =C: s2p2                                                              
   LEXCH  = PE                                                                  
   EATOM  =   147.1560 eV,   10.8157 Ry                                         
                                                                                
   TITEL  = PAW_PBE C 08Apr2002                                                 
   LULTRA =        F    use ultrasoft PP ?                                      
   IUNSCR =        1    unscreen: 0-lin 1-nonlin 2-no                           
   RPACOR =    1.200    partial core radius                                     
   POMASS =   12.011; ZVAL   =    4.000    mass and valenz                      
   RCORE  =    1.500    outmost cutoff radius                                   
   RWIGS  =    1.630; RWIGS  =    0.863    wigner-seitz radius (au A)           
   ENMAX  =  400.000; ENMIN  =  300.000 eV                                      
   ICORE  =        2    local potential                                         
   LCOR   =        T    correct aug charges                                     
   LPAW   =        T    paw PP                                                  
   EAUG   =  644.873                                                            
   DEXC   =    0.000                                                            
   RMAX   =    1.529    core radius for proj-oper                               
   RAUG   =    1.300    factor for augmentation sphere                          
   RDEP   =    1.501    radius for radial grids                                 
   RDEPT  =    1.300    core radius for aug-charge                              
                                                                                
   Atomic configuration                                                         
    4 entries                                                                   
     n  l   j            E        occ.                                          
     1  0  0.50      -273.3789   2.0000                                         
     2  0  0.50       -13.7508   2.0000                                         
     2  1  0.50        -5.2854   2.0000                                         
     3  2  1.50        -5.4423   0.0000                                         
   Description                                                                  
     l       E           TYP  RCUT    TYP  RCUT                                 
     0    -13.7508458     23  1.200                                             
     0     -8.2022199     23  1.200                                             
     1     -5.2854383     23  1.500                                             
     1     34.0145650     23  1.500                                             
     2     -5.4423304      7  1.500                                             
  local pseudopotential read in
  partial core-charges read in
  partial kinetic energy density read in
  atomic valenz-charges read in
  non local Contribution for L=           0  read in
    real space projection operators read in
  non local Contribution for L=           0  read in
    real space projection operators read in
  non local Contribution for L=           1  read in
    real space projection operators read in
  non local Contribution for L=           1  read in
    real space projection operators read in
    PAW grid and wavefunctions read in
 
   number of l-projection  operators is LMAX  =           4
   number of lm-projection operators is LMMAX =           8
 
 POTCAR:    PAW_PBE O 08Apr2002                   
   VRHFIN =O: s2p4                                                              
   LEXCH  = PE                                                                  
   EATOM  =   432.3788 eV,   31.7789 Ry                                         
                                                                                
   TITEL  = PAW_PBE O 08Apr2002                                                 
   LULTRA =        F    use ultrasoft PP ?                                      
   IUNSCR =        1    unscreen: 0-lin 1-nonlin 2-no                           
   RPACOR =    1.200    partial core radius                                     
   POMASS =   16.000; ZVAL   =    6.000    mass and valenz                      
   RCORE  =    1.520    outmost cutoff radius                                   
   RWIGS  =    1.550; RWIGS  =    0.820    wigner-seitz radius (au A)           
   ENMAX  =  400.000; ENMIN  =  300.000 eV                                      
   ICORE  =        2    local potential                                         
   LCOR   =        T    correct aug charges                                     
   LPAW   =        T    paw PP                                                  
   EAUG   =  605.392                                                            
   DEXC   =    0.000                                                            
   RMAX   =    1.553    core radius for proj-oper                               
   RAUG   =    1.300    factor for augmentation sphere                          
   RDEP   =    1.550    radius for radial grids                                 
   RDEPT  =    1.329    core radius for aug-charge                              
                                                                                
   Atomic configuration                                                         
    4 entries                                                                   
     n  l   j            E        occ.                                          
     1  0  0.50      -514.6923   2.0000                                         
     2  0  0.50       -23.9615   2.0000                                         
     2  1  0.50        -9.0305   4.0000                                         
     3  2  1.50        -9.5241   0.0000                                         
   Description                                                                  
     l       E           TYP  RCUT    TYP  RCUT                                 
     0    -23.9615318     23  1.200                                             
     0     -9.5240782     23  1.200                                             
     1     -9.0304911     23  1.520                                             
     1      8.1634956     23  1.520                                             
     2     -9.5240782      7  1.500                                             
  local pseudopotential read in
  partial core-charges read in
  partial kinetic energy density read in
  kinetic energy density of atom read in
  atomic valenz-charges read in
  non local Contribution for L=           0  read in
    real space projection operators read in
  non local Contribution for L=           0  read in
    real space projection operators read in
  non local Contribution for L=           1  read in
    real space projection operators read in
  non local Contribution for L=           1  read in
    real space projection operators read in
    PAW grid and wavefunctions read in
 
   number of l-projection  operators is LMAX  =           4
   number of lm-projection operators is LMMAX =           8
 
 Optimization of the real space projectors (new method)

 maximal supplied QI-value         = 25.13
 optimisation between [QCUT,QGAM] = [ 10.81, 21.61] = [ 32.71,130.83] Ry 
 Optimized for a Real-space Cutoff    1.23 Angstroem

   l    n(q)    QCUT    max X(q) W(low)/X(q) W(high)/X(q)  e(spline) 
   0      8    10.807   115.676    0.36E-03    0.72E-03    0.24E-06
   0      8    10.807    87.132    0.35E-03    0.71E-03    0.24E-06
   1      7    10.807     4.429    0.19E-03    0.39E-03    0.11E-06
   1      7    10.807     2.733    0.14E-03    0.28E-03    0.13E-06
 Optimization of the real space projectors (new method)

 maximal supplied QI-value         = 24.76
 optimisation between [QCUT,QGAM] = [ 10.64, 21.54] = [ 31.73,129.89] Ry 
 Optimized for a Real-space Cutoff    1.23 Angstroem

   l    n(q)    QCUT    max X(q) W(low)/X(q) W(high)/X(q)  e(spline) 
   0      8    10.645    20.381    0.38E-03    0.60E-03    0.15E-06
   0      8    10.645    15.268    0.40E-03    0.65E-03    0.17E-06
   1      7    10.645     5.964    0.30E-03    0.63E-03    0.18E-06
   1      7    10.645     5.382    0.24E-03    0.53E-03    0.16E-06
  PAW_PBE C 08Apr2002                   :
 energy of atom  1       EATOM= -147.1560
 kinetic energy error for atom=    0.0116 (will be added to EATOM!!)
  PAW_PBE O 08Apr2002                   :
 energy of atom  2       EATOM= -432.3788
 kinetic energy error for atom=    0.0389 (will be added to EATOM!!)
 
 
 POSCAR: # Bulk supercell                        
  positions in direct lattice
  velocities in cartesian coordinates
 exchange correlation table for  LEXCH =        8
   RHO(1)=    0.500       N(1)  =     2000
   RHO(2)=  100.500       N(2)  =     4000
 


--------------------------------------------------------------------------------------------------------


 ion  position               nearest neighbor table
   1  1.000  0.000  0.000-   4 1.42  44 1.42   2 1.42
   2  0.333  0.000  0.000-   3 1.42  43 1.42   1 1.42
   3  0.500  0.031  0.000-   2 1.42   6 1.42   4 1.42
   4  0.833  0.031  0.000-   1 1.42   5 1.42   3 1.42
   5  1.000  0.062  0.000-   6 1.42   4 1.42   8 1.42
   6  0.333  0.062  0.000-   5 1.42   3 1.42   7 1.42
   7  0.500  0.094  0.000-  10 1.42   6 1.42   8 1.42
   8  0.833  0.094  0.000-   9 1.42   5 1.42   7 1.42
   9  1.000  0.125  0.000-   8 1.42  12 1.42  10 1.42
  10  0.333  0.125  0.000-   7 1.42  11 1.42   9 1.42
  11  0.500  0.156  0.000-  12 1.42  14 1.42  10 1.42
  12  0.833  0.156  0.000-  11 1.42  13 1.42   9 1.42
  13  1.000  0.187  0.000-  16 1.42  12 1.42  14 1.42
  14  0.333  0.187  0.000-  15 1.42  11 1.42  13 1.42
  15  0.500  0.219  0.000-  14 1.42  18 1.42  16 1.42
  16  0.833  0.219  0.000-  13 1.42  17 1.42  15 1.42
  17  1.000  0.250  0.000-  20 1.42  16 1.42  18 1.42
  18  0.333  0.250  0.000-  19 1.42  15 1.42  17 1.42
  19  0.499  0.281  0.000-  22 1.42  18 1.42  20 1.43
  20  0.834  0.281  0.000-  21 1.42  17 1.42  19 1.43
  21  0.002  0.312  0.000-  22 1.40  20 1.42  24 1.42
  22  0.331  0.312  0.000-  21 1.40  19 1.42  23 1.42
  23  0.500  0.343  0.000-  46 1.28  24 1.42  22 1.42
  24  0.833  0.343  0.000-  45 1.28  23 1.42  21 1.42
  25  0.000  0.688  0.000-  48 1.28  26 1.42  28 1.42
  26  0.333  0.688  0.000-  47 1.28  25 1.42  27 1.42
  27  0.502  0.719  0.000-  28 1.40  30 1.42  26 1.42
  28  0.831  0.719  0.000-  27 1.40  29 1.42  25 1.42
  29  0.999  0.750  0.000-  28 1.42  32 1.42  30 1.43
  30  0.334  0.750  0.000-  27 1.42  31 1.42  29 1.43
  31  0.500  0.781  0.000-  30 1.42  34 1.42  32 1.42
  32  0.833  0.781  0.000-  29 1.42  33 1.42  31 1.42
  33  1.000  0.813  0.000-  36 1.42  32 1.42  34 1.42
  34  0.333  0.813  0.000-  35 1.42  31 1.42  33 1.42
  35  0.500  0.844  0.000-  34 1.42  38 1.42  36 1.42
  36  0.833  0.844  0.000-  33 1.42  37 1.42  35 1.42
  37  1.000  0.875  0.000-  38 1.42  36 1.42  40 1.42
  38  0.333  0.875  0.000-  37 1.42  35 1.42  39 1.42
  39  0.500  0.906  0.000-  42 1.42  38 1.42  40 1.42
  40  0.833  0.906  0.000-  41 1.42  37 1.42  39 1.42
  41  1.000  0.938  0.000-  40 1.42  44 1.42  42 1.42
  42  0.333  0.938  0.000-  39 1.42  43 1.42  41 1.42
  43  0.500  0.969  0.000-  44 1.42   2 1.42  42 1.42
  44  0.833  0.969  0.000-  43 1.42   1 1.42  41 1.42
  45  0.929  0.374  0.000-  24 1.28
  46  0.404  0.374  0.000-  23 1.28
  47  0.429  0.657  0.000-  26 1.28
  48  0.904  0.657  0.000-  25 1.28
 
  LATTYP: Found a simple monoclinic cell.
 ALAT       =     4.2671420396
 B/A-ratio  =     9.2355726048
 C/A-ratio  =     1.5277654391
 COS(beta)  =    -0.8729266537
  
  Lattice vectors:
  
 A1 = (  -2.8441353514,   0.0000000000,  -3.1810996981)
 A2 = (   0.0000000000, -39.4095001221,   0.0000000000)
 A3 = (   1.4220706372,   0.0000000000,   6.3621993962)


Analysis of symmetry for initial positions (statically):
=====================================================================
 Subroutine PRICEL returns:
 Original cell was already a primitive cell.
 

 Routine SETGRP: Setting up the symmetry group for a 
 simple monoclinic supercell.


 Subroutine GETGRP returns: Found  2 space group operations
 (whereof  1 operations were pure point group operations)
 out of a pool of  4 trial point group operations.


The static configuration has the point symmetry C_1 .
 The point group associated with its full space group is C_1h.


Analysis of symmetry for dynamics (positions and initial velocities):
=====================================================================
 Subroutine PRICEL returns:
 Original cell was already a primitive cell.
 

 Routine SETGRP: Setting up the symmetry group for a 
 simple monoclinic supercell.


 Subroutine GETGRP returns: Found  2 space group operations
 (whereof  1 operations were pure point group operations)
 out of a pool of  4 trial point group operations.


The dynamic configuration has the point symmetry C_1 .
 The point group associated with its full space group is C_1h.


Analysis of constrained symmetry for selective dynamics:
=====================================================================
 Subroutine PRICEL returns:
 Original cell was already a primitive cell.
 

 Routine SETGRP: Setting up the symmetry group for a 
 simple monoclinic supercell.


 Subroutine GETGRP returns: Found  2 space group operations
 (whereof  1 operations were pure point group operations)
 out of a pool of  4 trial point group operations.


The constrained configuration has the point symmetry C_1 .
 The point group associated with its full space group is C_1h.


Analysis of structural, dynamic, and magnetic symmetry:
=====================================================================
 Subroutine PRICEL returns:
 Original cell was already a primitive cell.
 

 Routine SETGRP: Setting up the symmetry group for a 
 simple monoclinic supercell.


 Subroutine GETGRP returns: Found  2 space group operations
 (whereof  1 operations were pure point group operations)
 out of a pool of  4 trial point group operations.


The magnetic configuration has the point symmetry C_1 .
 The point group associated with its full space group is C_1h.


 Subroutine INISYM returns: Found  2 space group operations
 (whereof  1 operations are pure point group operations),
 and found     1 'primitive' translations

 
 
 KPOINTS: KPT-Resolved Value to Generate K-Mesh: 0

Automatic generation of k-mesh.
Space group operators:
 irot       det(A)        alpha          n_x          n_y          n_z        tau_x        tau_y        tau_z
    1     1.000000     0.000001     1.000000     0.000000     0.000000     0.000000     0.000000     0.000000
    2    -1.000000   180.000000     0.000000     1.000000     0.000000     0.500000    -0.968769     1.000000
 
 Subroutine IBZKPT returns following result:
 ===========================================
 
 Found      8 irreducible k-points:
 
 Following reciprocal coordinates:
            Coordinates               Weight
  0.000000  0.000000  0.000000      1.000000
  0.166667  0.000000  0.000000      2.000000
  0.333333  0.000000  0.000000      2.000000
  0.500000  0.000000  0.000000      1.000000
  0.000000  0.000000  0.500000      1.000000
  0.166667  0.000000  0.500000      2.000000
  0.333333  0.000000  0.500000      2.000000
  0.500000  0.000000  0.500000      1.000000
 
 Following cartesian coordinates:
            Coordinates               Weight
  0.000000  0.000000  0.000000      1.000000
  0.039067  0.000000  0.017464      2.000000
  0.078134  0.000000  0.034928      2.000000
  0.117200  0.000000  0.052393      1.000000
  0.000000  0.000000  0.157178      1.000000
  0.039067  0.000000  0.174643      2.000000
  0.078134  0.000000  0.192107      2.000000
  0.117200  0.000000  0.209571      1.000000
 


--------------------------------------------------------------------------------------------------------




 Dimension of arrays:
   k-points           NKPTS =      8   k-points in BZ     NKDIM =      8   number of bands    NBANDS=    152
   number of dos      NEDOS =    301   number of ions     NIONS =     48
   non local maximal  LDIM  =      4   non local SUM 2l+1 LMDIM =      8
   total plane-waves  NPLWV =  90720
   max r-space proj   IRMAX =   1362   max aug-charges    IRDMAX=   2400
   dimension x,y,z NGX =    24 NGY =  210 NGZ =   18
   dimension x,y,z NGXF=    48 NGYF=  420 NGZF=   36
   support grid    NGXF=    48 NGYF=  420 NGZF=   36
   ions per type =              44   4
   NGX,Y,Z   is equivalent  to a cutoff of   9.35,  8.86,  8.59 a.u.
   NGXF,Y,Z  is equivalent  to a cutoff of  18.70, 17.72, 17.18 a.u.

 SYSTEM =  metal                                   
 POSCAR =  # Bulk supercell                        

 Startparameter for this run:
   NWRITE =      2    write-flag & timer
   PREC   = normal    normal or accurate (medium, high low for compatibility)
   ISTART =      0    job   : 0-new  1-cont  2-samecut
   ICHARG =      2    charge: 1-file 2-atom 10-const
   ISPIN  =      2    spin polarized calculation?
   LNONCOLLINEAR =      F non collinear calculations
   LSORBIT =      F    spin-orbit coupling
   INIWAV =      1    electr: 0-lowe 1-rand  2-diag
   LASPH  =      F    aspherical Exc in radial PAW
   METAGGA=      F    non-selfconsistent MetaGGA calc.

 Electronic Relaxation 1
   ENCUT  =  450.0 eV  33.07 Ry    5.75 a.u.   7.38 68.17  6.03*2*pi/ulx,y,z
   ENINI  =  450.0     initial cutoff
   ENAUG  =  644.9 eV  augmentation charge cutoff
   NELM   =    120;   NELMIN=  2; NELMDL=-12     # of ELM steps 
   EDIFF  = 0.1E-03   stopping-criterion for ELM
   LREAL  =      T    real-space projection
   NLSPLINE    = F    spline interpolate recip. space projectors
   LCOMPAT=      F    compatible to vasp.4.4
   GGA_COMPAT  = T    GGA compatible to vasp.4.4-vasp.4.6
   LMAXPAW     = -100 max onsite density
   LMAXMIX     =    2 max onsite mixed and CHGCAR
   VOSKOWN=      0    Vosko Wilk Nusair interpolation
   ROPT   =   -0.00050  -0.00050
 Ionic relaxation
   EDIFFG = -.1E-01   stopping-criterion for IOM
   NSW    =      3    number of steps for IOM
   NBLOCK =      1;   KBLOCK =      3    inner block; outer block 
   IBRION =      2    ionic relax: 0-MD 1-quasi-New 2-CG
   NFREE  =      1    steps in history (QN), initial steepest desc. (CG)
   ISIF   =      0    stress and relaxation
   IWAVPR =     11    prediction:  0-non 1-charg 2-wave 3-comb
   ISYM   =      2    0-nonsym 1-usesym 2-fastsym
   LCORR  =      T    Harris-Foulkes like correction to forces

   POTIM  = 0.5000    time-step for ionic-motion
   TEIN   =    0.0    initial temperature
   TEBEG  =    0.0;   TEEND  =   0.0 temperature during run
   SMASS  =  -3.00    Nose mass-parameter (am)
   estimated Nose-frequenzy (Omega)   =  0.10E-29 period in steps =****** mass=  -0.416E-27a.u.
   SCALEE = 1.0000    scale energy and forces
   NPACO  =    256;   APACO  = 16.0  distance and # of slots for P.C.
   PSTRESS=    0.0 pullay stress

  Mass of Ions in am
   POMASS =  12.01 16.00
  Ionic Valenz
   ZVAL   =   4.00  6.00
  Atomic Wigner-Seitz radii
   RWIGS  =  -1.00 -1.00
  virtual crystal weights 
   VCA    =   1.00  1.00
   NELECT =     200.0000    total number of electrons
   NUPDOWN=      -1.0000    fix difference up-down

 DOS related values:
   EMIN   =  10.00;   EMAX   =-10.00  energy-range for DOS
   EFERMI =   0.00
   ISMEAR =     0;   SIGMA  =   0.05  broadening in eV -4-tet -1-fermi 0-gaus

 Electronic relaxation 2 (details)
   IALGO  =     48    algorithm
   LDIAG  =      T    sub-space diagonalisation (order eigenvalues)
   LSUBROT=      F    optimize rotation matrix (better conditioning)
   TURBO    =      0    0=normal 1=particle mesh
   IRESTART =      0    0=no restart 2=restart with 2 vectors
   NREBOOT  =      0    no. of reboots
   NMIN     =      0    reboot dimension
   EREF     =   0.00    reference energy to select bands
   IMIX   =      4    mixing-type and parameters
     AMIX     =   0.40;   BMIX     =  1.00
     AMIX_MAG =   1.60;   BMIX_MAG =  1.00
     AMIN     =   0.10
     WC   =   100.;   INIMIX=   1;  MIXPRE=   1;  MAXMIX= -45

 Intra band minimization:
   WEIMIN = 0.0010     energy-eigenvalue tresh-hold
   EBREAK =  0.16E-06  absolut break condition
   DEPER  =   0.30     relativ break condition  

   TIME   =   0.40     timestep for ELM

  volume/ion in A,a.u.               =      11.14        75.19
  Fermi-wavevector in a.u.,A,eV,Ry     =   1.179447  2.228831 18.926993  1.391095
  Thomas-Fermi vector in A             =   2.315757
 
 Write flags
   LWAVE        =      F    write WAVECAR
   LDOWNSAMPLE  =      F    k-point downsampling of WAVECAR
   LCHARG       =      T    write CHGCAR
   LVTOT        =      F    write LOCPOT, total local potential
   LVHAR        =      F    write LOCPOT, Hartree potential only
   LELF         =      F    write electronic localiz. function (ELF)
   LORBIT       =      0    0 simple, 1 ext, 2 COOP (PROOUT), +10 PAW based schemes


 Dipole corrections
   LMONO  =      F    monopole corrections only (constant potential shift)
   LDIPOL =      F    correct potential (dipole corrections)
   IDIPOL =      0    1-x, 2-y, 3-z, 4-all directions 
   EPSILON=  1.0000000 bulk dielectric constant

 Exchange correlation treatment:
   GGA     =    --    GGA type
   LEXCH   =     8    internal setting for exchange type
   VOSKOWN=      0    Vosko Wilk Nusair interpolation
   LHFCALC =     F    Hartree Fock is set to
   LHFONE  =     F    Hartree Fock one center treatment
   AEXX    =    0.0000 exact exchange contribution

 Linear response parameters
   LEPSILON=     F    determine dielectric tensor
   LRPA    =     F    only Hartree local field effects (RPA)
   LNABLA  =     F    use nabla operator in PAW spheres
   LVEL    =     F    velocity operator in full k-point grid
   LINTERFAST=   F  fast interpolation
   KINTER  =     0    interpolate to denser k-point grid
   CSHIFT  =0.1000    complex shift for real part using Kramers Kronig
   OMEGAMAX=  -1.0    maximum frequency
   DEG_THRESHOLD= 0.2000000E-02 threshold for treating states as degnerate
   RTIME   =   -0.100 relaxation time in fs
  (WPLASMAI=    0.000 imaginary part of plasma frequency in eV, 0.658/RTIME)
   DFIELD  = 0.0000000 0.0000000 0.0000000 field for delta impulse in time
 
 Orbital magnetization related:
   ORBITALMAG=     F  switch on orbital magnetization
   LCHIMAG   =     F  perturbation theory with respect to B field
   DQ        =  0.001000  dq finite difference perturbation B field
   LLRAUG    =     F  two centre corrections for induced B field



--------------------------------------------------------------------------------------------------------


 conjugate gradient relaxation of ions
   using selective dynamics as specified on POSCAR
 charge density and potential will be updated during run
 spin polarized calculation
 RMM-DIIS sequential band-by-band
 perform sub-space diagonalisation
    before iterative eigenvector-optimisation
 modified Broyden-mixing scheme, WC =      100.0
 initial mixing is a Kerker type mixing with AMIX =  0.4000 and BMIX =      1.0000
 Hartree-type preconditioning will be used
 using additional bands           52
 real space projection scheme for non local part
 use partial core corrections
 calculate Harris-corrections to forces 
   (improved forces if not selfconsistent)
 use gradient corrections 
 use of overlap-Matrix (Vanderbilt PP)
 Gauss-broadening in eV      SIGMA  =   0.05


--------------------------------------------------------------------------------------------------------


  energy-cutoff  :      450.00
  volume of cell :      534.83
      direct lattice vectors                 reciprocal lattice vectors
     4.266200066  0.000000000  0.000000000     0.234400634  0.000000000  0.104785421
     0.000000000 39.409500122  0.000000000     0.000000000  0.025374592  0.000000000
    -1.422064714  0.000000000  3.181099698     0.000000000  0.000000000  0.314356699

  length of vectors
     4.266200066 39.409500122  3.484488964     0.256755996  0.025374592  0.314356699


 
 k-points in units of 2pi/SCALE and weight: KPT-Resolved Value to Generate K-Mesh: 0
   0.00000000  0.00000000  0.00000000       0.083
   0.03906677  0.00000000  0.01746424       0.167
   0.07813354  0.00000000  0.03492847       0.167
   0.11720032  0.00000000  0.05239271       0.083
   0.00000000  0.00000000  0.15717835       0.083
   0.03906677  0.00000000  0.17464259       0.167
   0.07813354  0.00000000  0.19210682       0.167
   0.11720032  0.00000000  0.20957106       0.083
 
 k-points in reciprocal lattice and weights: KPT-Resolved Value to Generate K-Mesh: 0
   0.00000000  0.00000000  0.00000000       0.083
   0.16666667  0.00000000  0.00000000       0.167
   0.33333333  0.00000000  0.00000000       0.167
   0.50000000  0.00000000  0.00000000       0.083
   0.00000000  0.00000000  0.50000000       0.083
   0.16666667  0.00000000  0.50000000       0.167
   0.33333333  0.00000000  0.50000000       0.167
   0.50000000  0.00000000  0.50000000       0.083
 
 position of ions in fractional coordinates (direct lattice) 
   0.99972635  0.00000783  0.00000000
   0.33324726  0.00000789  0.00000000
   0.49972635  0.03122317  0.00000000
   0.83324726  0.03122310  0.00000000
   0.99989858  0.06246133  0.00000000
   0.33301183  0.06245907  0.00000000
   0.49966823  0.09369861  0.00000000
   0.83324927  0.09370033  0.00000000
   0.99972692  0.12492436  0.00000000
   0.33326526  0.12492629  0.00000000
   0.49993855  0.15617451  0.00000000
   0.83312972  0.15617360  0.00000000
   0.99968157  0.18741802  0.00000000
   0.33345729  0.18742148  0.00000000
   0.49976508  0.21863473  0.00000000
   0.83340337  0.21863213  0.00000000
   0.99982960  0.24990082  0.00000000
   0.33333668  0.24990181  0.00000000
   0.49924169  0.28117075  0.00000000
   0.83390417  0.28116934  0.00000000
   0.00216473  0.31214964  0.00000000
   0.33091401  0.31214843  0.00000000
   0.50011866  0.34329153  0.00000000
   0.83287698  0.34329222  0.00000000
   0.00011866  0.68793945  0.00000000
   0.33287698  0.68793876  0.00000000
   0.50216473  0.71908037  0.00000000
   0.83091401  0.71908157  0.00000000
   0.99924169  0.75005929  0.00000000
   0.33390417  0.75006070  0.00000000
   0.49982960  0.78133017  0.00000000
   0.83333668  0.78132918  0.00000000
   0.99976508  0.81259525  0.00000000
   0.33340337  0.81259786  0.00000000
   0.49968157  0.84381198  0.00000000
   0.83345729  0.84380853  0.00000000
   0.99993855  0.87505551  0.00000000
   0.33312972  0.87505641  0.00000000
   0.49972692  0.90630566  0.00000000
   0.83326526  0.90630372  0.00000000
   0.99966823  0.93753236  0.00000000
   0.33324927  0.93753065  0.00000000
   0.49989858  0.96876969  0.00000000
   0.83301183  0.96877194  0.00000000
   0.92883304  0.37417703  0.00000000
   0.40408709  0.37417364  0.00000000
   0.42883310  0.65705395  0.00000000
   0.90408811  0.65705735  0.00000000
 
 position of ions in cartesian coordinates  (Angst):
   4.26503263  0.00030848  0.00000000
   1.42169948  0.00031111  0.00000000
   2.13193260  1.23048958  0.00000000
   3.55479951  1.23048695  0.00000000
   4.26576740  2.46156976  0.00000000
   1.42069508  2.46148088  0.00000000
   2.13168463  3.69261553  0.00000000
   3.55480809  3.69268326  0.00000000
   4.26503507  4.92320651  0.00000000
   1.42177628  4.92328284  0.00000000
   2.13283788  6.15475946  0.00000000
   3.55429807  6.15472366  0.00000000
   4.26484158  7.38605046  0.00000000
   1.42259550  7.38618671  0.00000000
   2.13209783  8.61628554  0.00000000
   3.55546553  8.61618281  0.00000000
   4.26547312  9.84846638  0.00000000
   1.42208095  9.84850538  0.00000000
   2.12986493 11.08079856  0.00000000
   3.55760202 11.08074295  0.00000000
   0.00923518 12.30166110  0.00000000
   1.41174537 12.30161368  0.00000000
   2.13360627 13.52894768  0.00000000
   3.55321984 13.52897492  0.00000000
   0.00050624 27.11134999  0.00000000
   1.42011981 27.11132275  0.00000000
   2.14233521 28.33859783  0.00000000
   3.54484540 28.33864525  0.00000000
   4.26296496 29.55946155  0.00000000
   1.42450198 29.55951716  0.00000000
   2.13237308 30.79183129  0.00000000
   3.55518098 30.79179229  0.00000000
   4.26519787 32.02397279  0.00000000
   1.42236549 32.02407553  0.00000000
   2.13174155 33.25420843  0.00000000
   3.55569553 33.25407218  0.00000000
   4.26593791 34.48550006  0.00000000
   1.42119804 34.48553586  0.00000000
   2.13193503 35.71705297  0.00000000
   3.55487632 35.71697665  0.00000000
   4.26478467 36.94768182  0.00000000
   1.42170806 36.94761409  0.00000000
   2.13266737 38.17872909  0.00000000
   3.55379512 38.17881797  0.00000000
   3.96258756 14.74612989  0.00000000
   1.72391639 14.74599599  0.00000000
   1.82948778 25.89416778  0.00000000
   3.85702074 25.89430168  0.00000000
 


--------------------------------------------------------------------------------------------------------


 k-point  1 :   0.0000 0.0000 0.0000  plane waves:   11583
 k-point  2 :   0.1667 0.0000 0.0000  plane waves:   11555
 k-point  3 :   0.3333 0.0000 0.0000  plane waves:   11508
 k-point  4 :   0.5000 0.0000 0.0000  plane waves:   11488
 k-point  5 :   0.0000 0.0000 0.5000  plane waves:   11620
 k-point  6 :   0.1667 0.0000 0.5000  plane waves:   11655
 k-point  7 :   0.3333 0.0000 0.5000  plane waves:   11649
 k-point  8 :   0.5000 0.0000 0.5000  plane waves:   11620

 maximum and minimum number of plane-waves per node :      1191     1125

 maximum number of plane-waves:     11655
 maximum index in each direction: 
   IXMAX=    7   IYMAX=   68   IZMAX=    6
   IXMIN=   -7   IYMIN=  -68   IZMIN=   -6


 real space projection operators:
  total allocation   :       3813.69 KBytes
  max/ min on nodes  :        509.81        287.25


 parallel 3D FFT for wavefunctions:
    minimum data exchange during FFTs selected (reduces bandwidth)
 parallel 3D FFT for charge:
    minimum data exchange during FFTs selected (reduces bandwidth)


 total amount of memory used by VASP MPI-rank0    48266. kBytes
=======================================================================

   base      :      30000. kBytes
   nonlr-proj:       1717. kBytes
   fftplans  :       1314. kBytes
   grid      :       3454. kBytes
   one-center:         30. kBytes
   wavefun   :      11751. kBytes
 
     INWAV:  cpu time    0.0000: real time    0.0002
 Broyden mixing: mesh for mixing (old mesh)
   NGX = 15   NGY =137   NGZ = 13
  (NGX  = 48   NGY  =420   NGZ  = 36)
  gives a total of  26715 points

 initial charge density was supplied:
 charge density of overlapping atoms calculated
 number of electron     200.0000000 magnetization      48.0000000
 keeping initial charge density in first step


--------------------------------------------------------------------------------------------------------


 Maximum index for non-local projection operator          244
 Maximum index for augmentation-charges          288 (set IRDMAX)


--------------------------------------------------------------------------------------------------------


 First call to EWALD:  gamma=   0.218
 Maximum number of real-space cells 5x 1x 6
 Maximum number of reciprocal cells 2x11x 1

    FEWALD:  cpu time    0.0023: real time    0.0023


--------------------------------------- Iteration      1(   1)  ---------------------------------------


    POTLOK:  cpu time    0.0401: real time    0.1451
    SETDIJ:  cpu time    0.0076: real time    0.0080
    EDDIAG:  cpu time    0.5270: real time    0.5349
  RMM-DIIS:  cpu time    0.6712: real time    0.6813
    ORTHCH:  cpu time    0.0820: real time    0.0831
       DOS:  cpu time    0.0018: real time    0.0020
    --------------------------------------------
      LOOP:  cpu time    1.3298: real time    1.4544

 eigenvalue-minimisations  :  2432
 total energy-change (2. order) : 0.2170701E+04  (-0.6746933E+04)
 number of electron     200.0000000 magnetization      48.0000000
 augmentation part      200.0000000 magnetization      48.0000000

 Free energy of the ion-electron system (eV)
  ---------------------------------------------------
  alpha Z        PSCENC =       372.54520999
  Ewald energy   TEWEN  =     38165.18647767
  -Hartree energ DENC   =    -46010.75833635
  -exchange      EXHF   =         0.00000000
  -V(xc)+E(xc)   XCENC  =       702.62007813
  PAW double counting   =      6154.95120234    -6186.79106147
  entropy T*S    EENTRO =        -0.00590347
  eigenvalues    EBANDS =       769.24144365
  atomic energy  EATOM  =      8203.71208324
  Solvation  Ediel_sol  =         0.00000000
  ---------------------------------------------------
  free energy    TOTEN  =      2170.70119373 eV

  energy without entropy =     2170.70709721  energy(sigma->0) =     2170.70414547


--------------------------------------------------------------------------------------------------------




--------------------------------------- Iteration      1(   2)  ---------------------------------------


    EDDIAG:  cpu time    0.5179: real time    0.5215
  RMM-DIIS:  cpu time    0.6798: real time    0.6814
    ORTHCH:  cpu time    0.0797: real time    0.0799
       DOS:  cpu time    0.0016: real time    0.0016
    --------------------------------------------
      LOOP:  cpu time    1.2790: real time    1.2844

 eigenvalue-minimisations  :  2432
 total energy-change (2. order) :-0.1728886E+04  (-0.1837466E+04)
 number of electron     200.0000000 magnetization      48.0000000
 augmentation part      200.0000000 magnetization      48.0000000

 Free energy of the ion-electron system (eV)
  ---------------------------------------------------
  alpha Z        PSCENC =       372.54520999
  Ewald energy   TEWEN  =     38165.18647767
  -Hartree energ DENC   =    -46010.75833635
  -exchange      EXHF   =         0.00000000
  -V(xc)+E(xc)   XCENC  =       702.62007813
  PAW double counting   =      6154.95120234    -6186.79106147
  entropy T*S    EENTRO =        -0.00834101
  eigenvalues    EBANDS =      -959.64225461
  atomic energy  EATOM  =      8203.71208324
  Solvation  Ediel_sol  =         0.00000000
  ---------------------------------------------------
  free energy    TOTEN  =       441.81505794 eV

  energy without entropy =      441.82339895  energy(sigma->0) =      441.81922844


--------------------------------------------------------------------------------------------------------




--------------------------------------- Iteration      1(   3)  ---------------------------------------


    EDDIAG:  cpu time    0.5074: real time    0.5091
  RMM-DIIS:  cpu time    0.6777: real time    0.6800
    ORTHCH:  cpu time    0.0826: real time    0.0828
       DOS:  cpu time    0.0018: real time    0.0018
    --------------------------------------------
      LOOP:  cpu time    1.2695: real time    1.2738

 eigenvalue-minimisations  :  2432
 total energy-change (2. order) :-0.5877544E+03  (-0.5759344E+03)
 number of electron     200.0000000 magnetization      48.0000000
 augmentation part      200.0000000 magnetization      48.0000000

 Free energy of the ion-electron system (eV)
  ---------------------------------------------------
  alpha Z        PSCENC =       372.54520999
  Ewald energy   TEWEN  =     38165.18647767
  -Hartree energ DENC   =    -46010.75833635
  -exchange      EXHF   =         0.00000000
  -V(xc)+E(xc)   XCENC  =       702.62007813
  PAW double counting   =      6154.95120234    -6186.79106147
  entropy T*S    EENTRO =        -0.00628152
  eigenvalues    EBANDS =     -1547.39868395
  atomic energy  EATOM  =      8203.71208324
  Solvation  Ediel_sol  =         0.00000000
  ---------------------------------------------------
  free energy    TOTEN  =      -145.93931191 eV

  energy without entropy =     -145.93303039  energy(sigma->0) =     -145.93617115


--------------------------------------------------------------------------------------------------------




--------------------------------------- Iteration      1(   4)  ---------------------------------------


    EDDIAG:  cpu time    0.5073: real time    0.5086
  RMM-DIIS:  cpu time    0.6798: real time    0.6819
    ORTHCH:  cpu time    0.0829: real time    0.0831
       DOS:  cpu time    0.0016: real time    0.0016
    --------------------------------------------
      LOOP:  cpu time    1.2715: real time    1.2753

 eigenvalue-minimisations  :  2432
 total energy-change (2. order) :-0.2039048E+03  (-0.1636513E+03)
 number of electron     200.0000000 magnetization      48.0000000
 augmentation part      200.0000000 magnetization      48.0000000

 Free energy of the ion-electron system (eV)
  ---------------------------------------------------
  alpha Z        PSCENC =       372.54520999
  Ewald energy   TEWEN  =     38165.18647767
  -Hartree energ DENC   =    -46010.75833635
  -exchange      EXHF   =         0.00000000
  -V(xc)+E(xc)   XCENC  =       702.62007813
  PAW double counting   =      6154.95120234    -6186.79106147
  entropy T*S    EENTRO =        -0.00219203
  eigenvalues    EBANDS =     -1751.30752773
  atomic energy  EATOM  =      8203.71208324
  Solvation  Ediel_sol  =         0.00000000
  ---------------------------------------------------
  free energy    TOTEN  =      -349.84406621 eV

  energy without entropy =     -349.84187418  energy(sigma->0) =     -349.84297019


--------------------------------------------------------------------------------------------------------




--------------------------------------- Iteration      1(   5)  ---------------------------------------


    EDDIAG:  cpu time    0.5097: real time    0.5117
  RMM-DIIS:  cpu time    0.6733: real time    0.6753
    ORTHCH:  cpu time    0.0830: real time    0.0832
       DOS:  cpu time    0.0015: real time    0.0015
    --------------------------------------------
      LOOP:  cpu time    1.2675: real time    1.2717

 eigenvalue-minimisations  :  2432
 total energy-change (2. order) :-0.5474902E+02  (-0.4725805E+02)
 number of electron     200.0000000 magnetization      48.0000000
 augmentation part      200.0000000 magnetization      48.0000000

 Free energy of the ion-electron system (eV)
  ---------------------------------------------------
  alpha Z        PSCENC =       372.54520999
  Ewald energy   TEWEN  =     38165.18647767
  -Hartree energ DENC   =    -46010.75833635
  -exchange      EXHF   =         0.00000000
  -V(xc)+E(xc)   XCENC  =       702.62007813
  PAW double counting   =      6154.95120234    -6186.79106147
  entropy T*S    EENTRO =        -0.00231533
  eigenvalues    EBANDS =     -1806.05642646
  atomic energy  EATOM  =      8203.71208324
  Solvation  Ediel_sol  =         0.00000000
  ---------------------------------------------------
  free energy    TOTEN  =      -404.59308823 eV

  energy without entropy =     -404.59077290  energy(sigma->0) =     -404.59193057


--------------------------------------------------------------------------------------------------------




--------------------------------------- Iteration      1(   6)  ---------------------------------------


    EDDIAG:  cpu time    0.5104: real time    0.5121
  RMM-DIIS:  cpu time    0.6752: real time    0.6768
    ORTHCH:  cpu time    0.0828: real time    0.0833
       DOS:  cpu time    0.0017: real time    0.0017
    --------------------------------------------
      LOOP:  cpu time    1.2700: real time    1.2740

 eigenvalue-minimisations  :  2432
 total energy-change (2. order) :-0.1798882E+02  (-0.1543546E+02)
 number of electron     200.0000000 magnetization      48.0000000
 augmentation part      200.0000000 magnetization      48.0000000

 Free energy of the ion-electron system (eV)
  ---------------------------------------------------
  alpha Z        PSCENC =       372.54520999
  Ewald energy   TEWEN  =     38165.18647767
  -Hartree energ DENC   =    -46010.75833635
  -exchange      EXHF   =         0.00000000
  -V(xc)+E(xc)   XCENC  =       702.62007813
  PAW double counting   =      6154.95120234    -6186.79106147
  entropy T*S    EENTRO =        -0.00079620
  eigenvalues    EBANDS =     -1824.04676934
  atomic energy  EATOM  =      8203.71208324
  Solvation  Ediel_sol  =         0.00000000
  ---------------------------------------------------
  free energy    TOTEN  =      -422.58191198 eV

  energy without entropy =     -422.58111578  energy(sigma->0) =     -422.58151388


--------------------------------------------------------------------------------------------------------




--------------------------------------- Iteration      1(   7)  ---------------------------------------


    EDDIAG:  cpu time    0.5036: real time    0.5050
  RMM-DIIS:  cpu time    0.6745: real time    0.6764
    ORTHCH:  cpu time    0.0821: real time    0.0823
       DOS:  cpu time    0.0016: real time    0.0016
    --------------------------------------------
      LOOP:  cpu time    1.2618: real time    1.2653

 eigenvalue-minimisations  :  2432
 total energy-change (2. order) :-0.6022000E+01  (-0.5531807E+01)
 number of electron     200.0000000 magnetization      48.0000000
 augmentation part      200.0000000 magnetization      48.0000000

 Free energy of the ion-electron system (eV)
  ---------------------------------------------------
  alpha Z        PSCENC =       372.54520999
  Ewald energy   TEWEN  =     38165.18647767
  -Hartree energ DENC   =    -46010.75833635
  -exchange      EXHF   =         0.00000000
  -V(xc)+E(xc)   XCENC  =       702.62007813
  PAW double counting   =      6154.95120234    -6186.79106147
  entropy T*S    EENTRO =        -0.00385185
  eigenvalues    EBANDS =     -1830.06571346
  atomic energy  EATOM  =      8203.71208324
  Solvation  Ediel_sol  =         0.00000000
  ---------------------------------------------------
  free energy    TOTEN  =      -428.60391176 eV

  energy without entropy =     -428.60005991  energy(sigma->0) =     -428.60198583


--------------------------------------------------------------------------------------------------------




--------------------------------------- Iteration      1(   8)  ---------------------------------------


    EDDIAG:  cpu time    0.5079: real time    0.5092
  RMM-DIIS:  cpu time    0.6830: real time    0.6850
    ORTHCH:  cpu time    0.0813: real time    0.0815
       DOS:  cpu time    0.0015: real time    0.0015
    --------------------------------------------
      LOOP:  cpu time    1.2737: real time    1.2773

 eigenvalue-minimisations  :  2432
 total energy-change (2. order) :-0.2313983E+01  (-0.2112593E+01)
 number of electron     200.0000000 magnetization      48.0000000
 augmentation part      200.0000000 magnetization      48.0000000

 Free energy of the ion-electron system (eV)
  ---------------------------------------------------
  alpha Z        PSCENC =       372.54520999
  Ewald energy   TEWEN  =     38165.18647767
  -Hartree energ DENC   =    -46010.75833635
  -exchange      EXHF   =         0.00000000
  -V(xc)+E(xc)   XCENC  =       702.62007813
  PAW double counting   =      6154.95120234    -6186.79106147
  entropy T*S    EENTRO =        -0.00277598
  eigenvalues    EBANDS =     -1832.38077262
  atomic energy  EATOM  =      8203.71208324
  Solvation  Ediel_sol  =         0.00000000
  ---------------------------------------------------
  free energy    TOTEN  =      -430.91789505 eV

  energy without entropy =     -430.91511907  energy(sigma->0) =     -430.91650706


--------------------------------------------------------------------------------------------------------




--------------------------------------- Iteration      1(   9)  ---------------------------------------


    EDDIAG:  cpu time    0.5164: real time    0.5181
  RMM-DIIS:  cpu time    1.3181: real time    1.3230
    ORTHCH:  cpu time    0.0798: real time    0.0800
       DOS:  cpu time    0.0017: real time    0.0017
    --------------------------------------------
      LOOP:  cpu time    1.9160: real time    1.9228

 eigenvalue-minimisations  :  5391
 total energy-change (2. order) :-0.1418283E+01  (-0.1372925E+01)
 number of electron     200.0000000 magnetization      48.0000000
 augmentation part      200.0000000 magnetization      48.0000000

 Free energy of the ion-electron system (eV)
  ---------------------------------------------------
  alpha Z        PSCENC =       372.54520999
  Ewald energy   TEWEN  =     38165.18647767
  -Hartree energ DENC   =    -46010.75833635
  -exchange      EXHF   =         0.00000000
  -V(xc)+E(xc)   XCENC  =       702.62007813
  PAW double counting   =      6154.95120234    -6186.79106147
  entropy T*S    EENTRO =        -0.00397427
  eigenvalues    EBANDS =     -1833.79785755
  atomic energy  EATOM  =      8203.71208324
  Solvation  Ediel_sol  =         0.00000000
  ---------------------------------------------------
  free energy    TOTEN  =      -432.33617826 eV

  energy without entropy =     -432.33220399  energy(sigma->0) =     -432.33419113


--------------------------------------------------------------------------------------------------------




--------------------------------------- Iteration      1(  10)  ---------------------------------------


    EDDIAG:  cpu time    0.5104: real time    0.5121
  RMM-DIIS:  cpu time    1.5059: real time    1.5100
    ORTHCH:  cpu time    0.0839: real time    0.0841
       DOS:  cpu time    0.0016: real time    0.0016
    --------------------------------------------
      LOOP:  cpu time    2.1018: real time    2.1078

 eigenvalue-minimisations  :  6054
 total energy-change (2. order) :-0.1274728E+00  (-0.1135651E+00)
 number of electron     200.0000000 magnetization      48.0000000
 augmentation part      200.0000000 magnetization      48.0000000

 Free energy of the ion-electron system (eV)
  ---------------------------------------------------
  alpha Z        PSCENC =       372.54520999
  Ewald energy   TEWEN  =     38165.18647767
  -Hartree energ DENC   =    -46010.75833635
  -exchange      EXHF   =         0.00000000
  -V(xc)+E(xc)   XCENC  =       702.62007813
  PAW double counting   =      6154.95120234    -6186.79106147
  entropy T*S    EENTRO =        -0.00416943
  eigenvalues    EBANDS =     -1833.92513520
  atomic energy  EATOM  =      8203.71208324
  Solvation  Ediel_sol  =         0.00000000
  ---------------------------------------------------
  free energy    TOTEN  =      -432.46365107 eV

  energy without entropy =     -432.45948164  energy(sigma->0) =     -432.46156636


--------------------------------------------------------------------------------------------------------




--------------------------------------- Iteration      1(  11)  ---------------------------------------


    EDDIAG:  cpu time    0.5210: real time    0.5228
  RMM-DIIS:  cpu time    1.2987: real time    1.3022
    ORTHCH:  cpu time    0.0816: real time    0.0818
       DOS:  cpu time    0.0017: real time    0.0017
    --------------------------------------------
      LOOP:  cpu time    1.9030: real time    1.9084

 eigenvalue-minimisations  :  5290
 total energy-change (2. order) :-0.3232054E-02  (-0.2673085E-02)
 number of electron     200.0000000 magnetization      48.0000000
 augmentation part      200.0000000 magnetization      48.0000000

 Free energy of the ion-electron system (eV)
  ---------------------------------------------------
  alpha Z        PSCENC =       372.54520999
  Ewald energy   TEWEN  =     38165.18647767
  -Hartree energ DENC   =    -46010.75833635
  -exchange      EXHF   =         0.00000000
  -V(xc)+E(xc)   XCENC  =       702.62007813
  PAW double counting   =      6154.95120234    -6186.79106147
  entropy T*S    EENTRO =        -0.00417835
  eigenvalues    EBANDS =     -1833.92835833
  atomic energy  EATOM  =      8203.71208324
  Solvation  Ediel_sol  =         0.00000000
  ---------------------------------------------------
  free energy    TOTEN  =      -432.46688313 eV

  energy without entropy =     -432.46270477  energy(sigma->0) =     -432.46479395


--------------------------------------------------------------------------------------------------------




--------------------------------------- Iteration      1(  12)  ---------------------------------------


    EDDIAG:  cpu time    0.5105: real time    0.5129
  RMM-DIIS:  cpu time    1.0562: real time    1.0613
    ORTHCH:  cpu time    0.0825: real time    0.0827
       DOS:  cpu time    0.0017: real time    0.0017
    CHARGE:  cpu time    0.1101: real time    0.1107
    MIXING:  cpu time    0.0017: real time    0.0021
    --------------------------------------------
      LOOP:  cpu time    1.7628: real time    1.7714

 eigenvalue-minimisations  :  4156
 total energy-change (2. order) :-0.4362878E-03  (-0.4157428E-03)
 number of electron     199.9999915 magnetization      46.2646818
 augmentation part        7.2392230 magnetization      42.7154438

 Broyden mixing:
  rms(total) = 0.43576E+01    rms(broyden)= 0.43566E+01
  rms(prec ) = 0.43937E+01
  weight for this iteration     100.00

 Free energy of the ion-electron system (eV)
  ---------------------------------------------------
  alpha Z        PSCENC =       372.54520999
  Ewald energy   TEWEN  =     38165.18647767
  -Hartree energ DENC   =    -46010.75833635
  -exchange      EXHF   =         0.00000000
  -V(xc)+E(xc)   XCENC  =       702.62007813
  PAW double counting   =      6154.95120234    -6186.79106147
  entropy T*S    EENTRO =        -0.00417850
  eigenvalues    EBANDS =     -1833.92879447
  atomic energy  EATOM  =      8203.71208324
  Solvation  Ediel_sol  =         0.00000000
  ---------------------------------------------------
  free energy    TOTEN  =      -432.46731942 eV

  energy without entropy =     -432.46314092  energy(sigma->0) =     -432.46523017


--------------------------------------------------------------------------------------------------------




--------------------------------------- Iteration      1(  13)  ---------------------------------------


    POTLOK:  cpu time    0.0355: real time    0.0357
    SETDIJ:  cpu time    0.0074: real time    0.0074
    EDDIAG:  cpu time    0.5241: real time    0.5253
  RMM-DIIS:  cpu time    1.1979: real time    1.2014
    ORTHCH:  cpu time    0.0823: real time    0.0825
       DOS:  cpu time    0.0017: real time    0.0017
    CHARGE:  cpu time    0.1090: real time    0.1093
    MIXING:  cpu time    0.0014: real time    0.0017
    --------------------------------------------
      LOOP:  cpu time    1.9592: real time    1.9650

 eigenvalue-minimisations  :  4864
 total energy-change (2. order) : 0.1259557E+03  (-0.1989935E+02)
 number of electron     199.9999908 magnetization      44.2318272
 augmentation part        7.0501681 magnetization      39.0452227

 Broyden mixing:
  rms(total) = 0.28043E+01    rms(broyden)= 0.28041E+01
  rms(prec ) = 0.28335E+01
  weight for this iteration     100.00

 eigenvalues of (default mixing * dielectric matrix)
  average eigenvalue GAMMA=   1.0044
  1.0044

 Free energy of the ion-electron system (eV)
  ---------------------------------------------------
  alpha Z        PSCENC =       372.54520999
  Ewald energy   TEWEN  =     38165.18647767
  -Hartree energ DENC   =    -46182.75553994
  -exchange      EXHF   =         0.00000000
  -V(xc)+E(xc)   XCENC  =       774.05382267
  PAW double counting   =     10409.79988506   -10445.56470848
  entropy T*S    EENTRO =        -0.00944300
  eigenvalues    EBANDS =     -1603.47939590
  atomic energy  EATOM  =      8203.71208324
  Solvation  Ediel_sol  =         0.00000000
  ---------------------------------------------------
  free energy    TOTEN  =      -306.51160869 eV

  energy without entropy =     -306.50216569  energy(sigma->0) =     -306.50688719


--------------------------------------------------------------------------------------------------------




--------------------------------------- Iteration      1(  14)  ---------------------------------------


    POTLOK:  cpu time    0.0340: real time    0.0342
    SETDIJ:  cpu time    0.0072: real time    0.0072
    EDDIAG:  cpu time    0.5055: real time    0.5067
  RMM-DIIS:  cpu time    1.2160: real time    1.2195
    ORTHCH:  cpu time    0.0827: real time    0.0829
       DOS:  cpu time    0.0016: real time    0.0016
    CHARGE:  cpu time    0.1080: real time    0.1083
    MIXING:  cpu time    0.0010: real time    0.0010
    --------------------------------------------
      LOOP:  cpu time    1.9560: real time    1.9614

 eigenvalue-minimisations  :  4870
 total energy-change (2. order) : 0.1142492E+02  (-0.1789249E+01)
 number of electron     199.9999939 magnetization      43.2656181
 augmentation part        7.3858603 magnetization      37.7996404

 Broyden mixing:
  rms(total) = 0.25925E+01    rms(broyden)= 0.25902E+01
  rms(prec ) = 0.30063E+01
  weight for this iteration     100.00

 eigenvalues of (default mixing * dielectric matrix)
  average eigenvalue GAMMA=   0.7913
  1.1206  0.4620

 Free energy of the ion-electron system (eV)
  ---------------------------------------------------
  alpha Z        PSCENC =       372.54520999
  Ewald energy   TEWEN  =     38165.18647767
  -Hartree energ DENC   =    -46434.75186683
  -exchange      EXHF   =         0.00000000
  -V(xc)+E(xc)   XCENC  =       784.65551790
  PAW double counting   =     14935.02562357   -14973.07219868
  entropy T*S    EENTRO =        -0.00570798
  eigenvalues    EBANDS =     -1348.38182615
  atomic energy  EATOM  =      8203.71208324
  Solvation  Ediel_sol  =         0.00000000
  ---------------------------------------------------
  free energy    TOTEN  =      -295.08668726 eV

  energy without entropy =     -295.08097928  energy(sigma->0) =     -295.08383327


--------------------------------------------------------------------------------------------------------




--------------------------------------- Iteration      1(  15)  ---------------------------------------


    POTLOK:  cpu time    0.0337: real time    0.0339
    SETDIJ:  cpu time    0.0072: real time    0.0072
    EDDIAG:  cpu time    0.5082: real time    0.5094
  RMM-DIIS:  cpu time    1.2060: real time    1.2100
    ORTHCH:  cpu time    0.0804: real time    0.0810
       DOS:  cpu time    0.0016: real time    0.0016
    CHARGE:  cpu time    0.1073: real time    0.1075
    MIXING:  cpu time    0.0010: real time    0.0010
    --------------------------------------------
      LOOP:  cpu time    1.9453: real time    1.9516

 eigenvalue-minimisations  :  4921
 total energy-change (2. order) :-0.2724471E+02  (-0.8775861E+00)
 number of electron     199.9999821 magnetization      41.5778598
 augmentation part        5.6143482 magnetization      32.6374143

 Broyden mixing:
  rms(total) = 0.39095E+01    rms(broyden)= 0.39037E+01
  rms(prec ) = 0.59690E+01
  weight for this iteration     100.00

 eigenvalues of (default mixing * dielectric matrix)
  average eigenvalue GAMMA=   0.7407
  1.3347  0.7152  0.1722

 Free energy of the ion-electron system (eV)
  ---------------------------------------------------
  alpha Z        PSCENC =       372.54520999
  Ewald energy   TEWEN  =     38165.18647767
  -Hartree energ DENC   =    -46235.46912910
  -exchange      EXHF   =         0.00000000
  -V(xc)+E(xc)   XCENC  =       794.66399762
  PAW double counting   =     16683.12953471   -16722.02793774
  entropy T*S    EENTRO =        -0.01043588
  eigenvalues    EBANDS =     -1584.06120063
  atomic energy  EATOM  =      8203.71208324
  Solvation  Ediel_sol  =         0.00000000
  ---------------------------------------------------
  free energy    TOTEN  =      -322.33140012 eV

  energy without entropy =     -322.32096424  energy(sigma->0) =     -322.32618218


--------------------------------------------------------------------------------------------------------




--------------------------------------- Iteration      1(  16)  ---------------------------------------


    POTLOK:  cpu time    0.0334: real time    0.0336
    SETDIJ:  cpu time    0.0071: real time    0.0072
    EDDIAG:  cpu time    0.5087: real time    0.5099
  RMM-DIIS:  cpu time    1.2063: real time    1.2095
    ORTHCH:  cpu time    0.1223: real time    0.1246
       DOS:  cpu time    0.0015: real time    0.0015
    CHARGE:  cpu time    0.1306: real time    0.1692
    MIXING:  cpu time    0.0009: real time    0.0009
    --------------------------------------------
      LOOP:  cpu time    2.0108: real time    2.0564

 eigenvalue-minimisations  :  4875
 total energy-change (2. order) : 0.5519730E+02  (-0.1146409E+01)
 number of electron     199.9999931 magnetization      39.6772801
 augmentation part        7.2047909 magnetization      33.8353454

 Broyden mixing:
  rms(total) = 0.19932E+01    rms(broyden)= 0.19847E+01
  rms(prec ) = 0.21933E+01
  weight for this iteration     100.00

 eigenvalues of (default mixing * dielectric matrix)
  average eigenvalue GAMMA=   0.9731
  2.3376  0.8523  0.5943  0.1085

 Free energy of the ion-electron system (eV)
  ---------------------------------------------------
  alpha Z        PSCENC =       372.54520999
  Ewald energy   TEWEN  =     38165.18647767
  -Hartree energ DENC   =    -46539.61513427
  -exchange      EXHF   =         0.00000000
  -V(xc)+E(xc)   XCENC  =       808.34846438
  PAW double counting   =     19600.58624450   -19639.90752013
  entropy T*S    EENTRO =        -0.00417218
  eigenvalues    EBANDS =     -1237.98575686
  atomic energy  EATOM  =      8203.71208324
  Solvation  Ediel_sol  =         0.00000000
  ---------------------------------------------------
  free energy    TOTEN  =      -267.13410366 eV

  energy without entropy =     -267.12993148  energy(sigma->0) =     -267.13201757


--------------------------------------------------------------------------------------------------------




--------------------------------------- Iteration      1(  17)  ---------------------------------------


    POTLOK:  cpu time    0.0334: real time    0.0360
    SETDIJ:  cpu time    0.0072: real time    0.0072
    EDDIAG:  cpu time    0.5117: real time    0.5129
  RMM-DIIS:  cpu time    1.2013: real time    1.2045
    ORTHCH:  cpu time    0.0814: real time    0.0820
       DOS:  cpu time    0.0017: real time    0.0017
    CHARGE:  cpu time    0.1078: real time    0.1080
    MIXING:  cpu time    0.0011: real time    0.0011
    --------------------------------------------
      LOOP:  cpu time    1.9456: real time    1.9535

 eigenvalue-minimisations  :  4878
 total energy-change (2. order) :-0.5171781E+00  (-0.2370162E+00)
 number of electron     199.9999924 magnetization      37.5102000
 augmentation part        6.9931901 magnetization      32.1425138

 Broyden mixing:
  rms(total) = 0.16781E+01    rms(broyden)= 0.16780E+01
  rms(prec ) = 0.18202E+01
  weight for this iteration     100.00

 eigenvalues of (default mixing * dielectric matrix)
  average eigenvalue GAMMA=   1.0437
  2.5422  1.0309  0.8282  0.7076  0.1097

 Free energy of the ion-electron system (eV)
  ---------------------------------------------------
  alpha Z        PSCENC =       372.54520999
  Ewald energy   TEWEN  =     38165.18647767
  -Hartree energ DENC   =    -46576.15959418
  -exchange      EXHF   =         0.00000000
  -V(xc)+E(xc)   XCENC  =       810.21167986
  PAW double counting   =     21859.09233224   -21898.72470299
  entropy T*S    EENTRO =        -0.01031912
  eigenvalues    EBANDS =     -1203.50444847
  atomic energy  EATOM  =      8203.71208324
  Solvation  Ediel_sol  =         0.00000000
  ---------------------------------------------------
  free energy    TOTEN  =      -267.65128174 eV

  energy without entropy =     -267.64096263  energy(sigma->0) =     -267.64612219


--------------------------------------------------------------------------------------------------------




--------------------------------------- Iteration      1(  18)  ---------------------------------------


    POTLOK:  cpu time    0.0331: real time    0.0333
    SETDIJ:  cpu time    0.0071: real time    0.0071
    EDDIAG:  cpu time    0.5064: real time    0.5076
  RMM-DIIS:  cpu time    1.2056: real time    1.2096
    ORTHCH:  cpu time    0.0834: real time    0.0839
       DOS:  cpu time    0.0017: real time    0.0017
    CHARGE:  cpu time    0.1076: real time    0.1079
    MIXING:  cpu time    0.0011: real time    0.0011
    --------------------------------------------
      LOOP:  cpu time    1.9461: real time    1.9522

 eigenvalue-minimisations  :  4907
 total energy-change (2. order) :-0.8655783E+01  (-0.1598988E+00)
 number of electron     199.9999910 magnetization      36.9976770
 augmentation part        6.4851793 magnetization      31.5693446

 Broyden mixing:
  rms(total) = 0.17383E+01    rms(broyden)= 0.17343E+01
  rms(prec ) = 0.18795E+01
  weight for this iteration     100.00

 eigenvalues of (default mixing * dielectric matrix)
  average eigenvalue GAMMA=   0.9198
  2.5632  0.8806  0.8054  0.8054  0.1099  0.3545

 Free energy of the ion-electron system (eV)
  ---------------------------------------------------
  alpha Z        PSCENC =       372.54520999
  Ewald energy   TEWEN  =     38165.18647767
  -Hartree energ DENC   =    -46530.63881386
  -exchange      EXHF   =         0.00000000
  -V(xc)+E(xc)   XCENC  =       806.01520974
  PAW double counting   =     22546.99002999   -22586.05331002
  entropy T*S    EENTRO =        -0.01336157
  eigenvalues    EBANDS =     -1254.05059013
  atomic energy  EATOM  =      8203.71208324
  Solvation  Ediel_sol  =         0.00000000
  ---------------------------------------------------
  free energy    TOTEN  =      -276.30706495 eV

  energy without entropy =     -276.29370338  energy(sigma->0) =     -276.30038416


--------------------------------------------------------------------------------------------------------




--------------------------------------- Iteration      1(  19)  ---------------------------------------


    POTLOK:  cpu time    0.0329: real time    0.0330
    SETDIJ:  cpu time    0.0071: real time    0.0072
    EDDIAG:  cpu time    0.5049: real time    0.5061
  RMM-DIIS:  cpu time    1.2085: real time    1.2117
    ORTHCH:  cpu time    0.0823: real time    0.0825
       DOS:  cpu time    0.0016: real time    0.0017
    CHARGE:  cpu time    0.1079: real time    0.1085
    MIXING:  cpu time    0.0013: real time    0.0013
    --------------------------------------------
      LOOP:  cpu time    1.9467: real time    1.9520

 eigenvalue-minimisations  :  4892
 total energy-change (2. order) :-0.2020036E+01  (-0.3845325E-01)
 number of electron     199.9999917 magnetization      31.4743907
 augmentation part        6.6449674 magnetization      25.6972531

 Broyden mixing:
  rms(total) = 0.14880E+01    rms(broyden)= 0.14880E+01
  rms(prec ) = 0.15364E+01
  weight for this iteration     100.00

 eigenvalues of (default mixing * dielectric matrix)
  average eigenvalue GAMMA=   1.0259
  2.5979  1.3701  0.8590  0.8590  0.6928  0.6928  0.1099

 Free energy of the ion-electron system (eV)
  ---------------------------------------------------
  alpha Z        PSCENC =       372.54520999
  Ewald energy   TEWEN  =     38165.18647767
  -Hartree energ DENC   =    -46538.88695131
  -exchange      EXHF   =         0.00000000
  -V(xc)+E(xc)   XCENC  =       804.37617450
  PAW double counting   =     22559.07415976   -22598.00782477
  entropy T*S    EENTRO =        -0.01516979
  eigenvalues    EBANDS =     -1246.31125991
  atomic energy  EATOM  =      8203.71208324
  Solvation  Ediel_sol  =         0.00000000
  ---------------------------------------------------
  free energy    TOTEN  =      -278.32710062 eV

  energy without entropy =     -278.31193083  energy(sigma->0) =     -278.31951572


--------------------------------------------------------------------------------------------------------




--------------------------------------- Iteration      1(  20)  ---------------------------------------


    POTLOK:  cpu time    0.0340: real time    0.0342
    SETDIJ:  cpu time    0.0073: real time    0.0073
    EDDIAG:  cpu time    0.5084: real time    0.5096
  RMM-DIIS:  cpu time    1.1942: real time    1.1979
    ORTHCH:  cpu time    0.0804: real time    0.0806
       DOS:  cpu time    0.0017: real time    0.0017
    CHARGE:  cpu time    0.1071: real time    0.1077
    MIXING:  cpu time    0.0012: real time    0.0012
    --------------------------------------------
      LOOP:  cpu time    1.9344: real time    1.9403

 eigenvalue-minimisations  :  4865
 total energy-change (2. order) :-0.4756498E+02  (-0.1742425E+01)
 number of electron     199.9999922 magnetization      24.4006251
 augmentation part        6.9844595 magnetization      19.8350704

 Broyden mixing:
  rms(total) = 0.14887E+01    rms(broyden)= 0.14855E+01
  rms(prec ) = 0.16916E+01
  weight for this iteration     100.00

 eigenvalues of (default mixing * dielectric matrix)
  average eigenvalue GAMMA=   1.2037
  3.4789  2.3619  0.1099  0.8920  0.8920  0.6234  0.6234  0.6480

 Free energy of the ion-electron system (eV)
  ---------------------------------------------------
  alpha Z        PSCENC =       372.54520999
  Ewald energy   TEWEN  =     38165.18647767
  -Hartree energ DENC   =    -46538.82196133
  -exchange      EXHF   =         0.00000000
  -V(xc)+E(xc)   XCENC  =       776.59148724
  PAW double counting   =     22859.07497102   -22896.74624421
  entropy T*S    EENTRO =        -0.00825730
  eigenvalues    EBANDS =     -1267.42584675
  atomic energy  EATOM  =      8203.71208324
  Solvation  Ediel_sol  =         0.00000000
  ---------------------------------------------------
  free energy    TOTEN  =      -325.89208042 eV

  energy without entropy =     -325.88382313  energy(sigma->0) =     -325.88795177


--------------------------------------------------------------------------------------------------------




--------------------------------------- Iteration      1(  21)  ---------------------------------------


    POTLOK:  cpu time    0.0331: real time    0.0334
    SETDIJ:  cpu time    0.0072: real time    0.0072
    EDDIAG:  cpu time    0.5043: real time    0.5055
  RMM-DIIS:  cpu time    1.1957: real time    1.1989
    ORTHCH:  cpu time    0.0818: real time    0.0820
       DOS:  cpu time    0.0017: real time    0.0017
    CHARGE:  cpu time    0.1074: real time    0.1077
    MIXING:  cpu time    0.0014: real time    0.0014
    --------------------------------------------
      LOOP:  cpu time    1.9326: real time    1.9377

 eigenvalue-minimisations  :  4870
 total energy-change (2. order) :-0.3885667E+02  (-0.1950320E+01)
 number of electron     199.9999941 magnetization      21.2147030
 augmentation part        7.2109880 magnetization      17.6877609

 Broyden mixing:
  rms(total) = 0.18632E+01    rms(broyden)= 0.18628E+01
  rms(prec ) = 0.22580E+01
  weight for this iteration     100.00

 eigenvalues of (default mixing * dielectric matrix)
  average eigenvalue GAMMA=   1.2641
  4.4232  2.3667  0.9329  0.9329  0.1099  0.6340  0.6340  0.7882  0.5549

 Free energy of the ion-electron system (eV)
  ---------------------------------------------------
  alpha Z        PSCENC =       372.54520999
  Ewald energy   TEWEN  =     38165.18647767
  -Hartree energ DENC   =    -46535.48044568
  -exchange      EXHF   =         0.00000000
  -V(xc)+E(xc)   XCENC  =       755.83303256
  PAW double counting   =     22813.45796018   -22850.02626163
  entropy T*S    EENTRO =        -0.01175773
  eigenvalues    EBANDS =     -1289.96504838
  atomic energy  EATOM  =      8203.71208324
  Solvation  Ediel_sol  =         0.00000000
  ---------------------------------------------------
  free energy    TOTEN  =      -364.74874977 eV

  energy without entropy =     -364.73699203  energy(sigma->0) =     -364.74287090


--------------------------------------------------------------------------------------------------------




--------------------------------------- Iteration      1(  22)  ---------------------------------------


    POTLOK:  cpu time    0.0330: real time    0.0332
    SETDIJ:  cpu time    0.0073: real time    0.0073
    EDDIAG:  cpu time    0.5081: real time    0.5096
  RMM-DIIS:  cpu time    1.2116: real time    1.2149
    ORTHCH:  cpu time    0.0824: real time    0.0826
       DOS:  cpu time    0.0017: real time    0.0017
    CHARGE:  cpu time    0.1078: real time    0.1080
    MIXING:  cpu time    0.0015: real time    0.0015
    --------------------------------------------
      LOOP:  cpu time    1.9533: real time    1.9588

 eigenvalue-minimisations  :  4881
 total energy-change (2. order) :-0.1193250E+02  (-0.5567000E+00)
 number of electron     199.9999940 magnetization      13.1414543
 augmentation part        7.1697927 magnetization       9.8054406

 Broyden mixing:
  rms(total) = 0.16074E+01    rms(broyden)= 0.16074E+01
  rms(prec ) = 0.20157E+01
  weight for this iteration     100.00

 eigenvalues of (default mixing * dielectric matrix)
  average eigenvalue GAMMA=   1.5555
  6.9950  2.5741  1.2004  1.2004  0.1099  0.6210  0.6210  0.8314  0.8314  0.5708

 Free energy of the ion-electron system (eV)
  ---------------------------------------------------
  alpha Z        PSCENC =       372.54520999
  Ewald energy   TEWEN  =     38165.18647767
  -Hartree energ DENC   =    -46532.91516279
  -exchange      EXHF   =         0.00000000
  -V(xc)+E(xc)   XCENC  =       749.61449991
  PAW double counting   =     22603.88668611   -22640.71504188
  entropy T*S    EENTRO =        -0.00840809
  eigenvalues    EBANDS =     -1297.98758999
  atomic energy  EATOM  =      8203.71208324
  Solvation  Ediel_sol  =         0.00000000
  ---------------------------------------------------
  free energy    TOTEN  =      -376.68124582 eV

  energy without entropy =     -376.67283773  energy(sigma->0) =     -376.67704178


--------------------------------------------------------------------------------------------------------




--------------------------------------- Iteration      1(  23)  ---------------------------------------


    POTLOK:  cpu time    0.0356: real time    0.0357
    SETDIJ:  cpu time    0.0071: real time    0.0071
    EDDIAG:  cpu time    0.5081: real time    0.5096
  RMM-DIIS:  cpu time    1.1939: real time    1.1979
    ORTHCH:  cpu time    0.0819: real time    0.0821
       DOS:  cpu time    0.0016: real time    0.0016
    CHARGE:  cpu time    0.1080: real time    0.1082
    MIXING:  cpu time    0.0022: real time    0.0024
    --------------------------------------------
      LOOP:  cpu time    1.9384: real time    1.9447

 eigenvalue-minimisations  :  4865
 total energy-change (2. order) :-0.3129359E+02  (-0.6868700E+01)
 number of electron     199.9999929 magnetization       8.6288658
 augmentation part        6.7866800 magnetization       7.5461558

 Broyden mixing:
  rms(total) = 0.79467E+00    rms(broyden)= 0.79320E+00
  rms(prec ) = 0.87014E+00
  weight for this iteration     100.00

 eigenvalues of (default mixing * dielectric matrix)
  average eigenvalue GAMMA=   1.8582
 10.8397  2.6306  1.1633  1.1633  1.2286  0.1099  0.8939  0.6147  0.6147  0.6238
  0.5580

 Free energy of the ion-electron system (eV)
  ---------------------------------------------------
  alpha Z        PSCENC =       372.54520999
  Ewald energy   TEWEN  =     38165.18647767
  -Hartree energ DENC   =    -46488.82280254
  -exchange      EXHF   =         0.00000000
  -V(xc)+E(xc)   XCENC  =       735.09040469
  PAW double counting   =     21300.52386955   -21338.12732633
  entropy T*S    EENTRO =        -0.01529842
  eigenvalues    EBANDS =     -1358.06745035
  atomic energy  EATOM  =      8203.71208324
  Solvation  Ediel_sol  =         0.00000000
  ---------------------------------------------------
  free energy    TOTEN  =      -407.97483250 eV

  energy without entropy =     -407.95953407  energy(sigma->0) =     -407.96718329


--------------------------------------------------------------------------------------------------------




--------------------------------------- Iteration      1(  24)  ---------------------------------------


    POTLOK:  cpu time    0.0333: real time    0.0335
    SETDIJ:  cpu time    0.0072: real time    0.0072
    EDDIAG:  cpu time    0.5132: real time    0.5148
  RMM-DIIS:  cpu time    1.2261: real time    1.2303
    ORTHCH:  cpu time    0.0822: real time    0.0824
       DOS:  cpu time    0.0017: real time    0.0017
    CHARGE:  cpu time    0.1083: real time    0.1086
    MIXING:  cpu time    0.0016: real time    0.0016
    --------------------------------------------
      LOOP:  cpu time    1.9736: real time    1.9800

 eigenvalue-minimisations  :  4875
 total energy-change (2. order) :-0.6132356E+01  (-0.4703291E+00)
 number of electron     199.9999930 magnetization       6.5153221
 augmentation part        6.6948082 magnetization       6.1185740

 Broyden mixing:
  rms(total) = 0.57745E+00    rms(broyden)= 0.57649E+00
  rms(prec ) = 0.63381E+00
  weight for this iteration     100.00

 eigenvalues of (default mixing * dielectric matrix)
  average eigenvalue GAMMA=   2.1880
 15.2196  2.5002  2.0841  1.1605  1.1605  0.1099  0.6224  0.6224  0.7531  0.7531
  0.6510  0.6198

 Free energy of the ion-electron system (eV)
  ---------------------------------------------------
  alpha Z        PSCENC =       372.54520999
  Ewald energy   TEWEN  =     38165.18647767
  -Hartree energ DENC   =    -46458.78963688
  -exchange      EXHF   =         0.00000000
  -V(xc)+E(xc)   XCENC  =       728.78684886
  PAW double counting   =     20863.16400406   -20900.65659324
  entropy T*S    EENTRO =        -0.01117814
  eigenvalues    EBANDS =     -1388.04440453
  atomic energy  EATOM  =      8203.71208324
  Solvation  Ediel_sol  =         0.00000000
  ---------------------------------------------------
  free energy    TOTEN  =      -414.10718895 eV

  energy without entropy =     -414.09601082  energy(sigma->0) =     -414.10159988


--------------------------------------------------------------------------------------------------------




--------------------------------------- Iteration      1(  25)  ---------------------------------------


    POTLOK:  cpu time    0.0331: real time    0.0333
    SETDIJ:  cpu time    0.0072: real time    0.0072
    EDDIAG:  cpu time    0.5090: real time    0.5106
  RMM-DIIS:  cpu time    1.2296: real time    1.2335
    ORTHCH:  cpu time    0.0827: real time    0.0829
       DOS:  cpu time    0.0016: real time    0.0016
    CHARGE:  cpu time    0.1093: real time    0.1096
    MIXING:  cpu time    0.0037: real time    0.0043
    --------------------------------------------
      LOOP:  cpu time    1.9763: real time    1.9830

 eigenvalue-minimisations  :  4882
 total energy-change (2. order) :-0.2536811E+01  (-0.1124375E+00)
 number of electron     199.9999927 magnetization       4.4771923
 augmentation part        6.6465233 magnetization       4.0562764

 Broyden mixing:
  rms(total) = 0.43666E+00    rms(broyden)= 0.43652E+00
  rms(prec ) = 0.45893E+00
  weight for this iteration     100.00

 eigenvalues of (default mixing * dielectric matrix)
  average eigenvalue GAMMA=   2.3805
 18.2080  2.5561  2.5561  1.2940  1.2940  0.1099  0.6226  0.6226  0.9002  0.7956
  0.7956  0.5959  0.5959

 Free energy of the ion-electron system (eV)
  ---------------------------------------------------
  alpha Z        PSCENC =       372.54520999
  Ewald energy   TEWEN  =     38165.18647767
  -Hartree energ DENC   =    -46438.29973373
  -exchange      EXHF   =         0.00000000
  -V(xc)+E(xc)   XCENC  =       726.19824963
  PAW double counting   =     20782.14931522   -20819.69134114
  entropy T*S    EENTRO =        -0.01747537
  eigenvalues    EBANDS =     -1408.42678586
  atomic energy  EATOM  =      8203.71208324
  Solvation  Ediel_sol  =         0.00000000
  ---------------------------------------------------
  free energy    TOTEN  =      -416.64400034 eV

  energy without entropy =     -416.62652497  energy(sigma->0) =     -416.63526266


--------------------------------------------------------------------------------------------------------




--------------------------------------- Iteration      1(  26)  ---------------------------------------


    POTLOK:  cpu time    0.0332: real time    0.0341
    SETDIJ:  cpu time    0.0072: real time    0.0072
    EDDIAG:  cpu time    0.5047: real time    0.5062
  RMM-DIIS:  cpu time    1.2018: real time    1.2050
    ORTHCH:  cpu time    0.0813: real time    0.0815
       DOS:  cpu time    0.0018: real time    0.0018
    CHARGE:  cpu time    0.1116: real time    0.1118
    MIXING:  cpu time    0.0019: real time    0.0019
    --------------------------------------------
      LOOP:  cpu time    1.9434: real time    1.9495

 eigenvalue-minimisations  :  4887
 total energy-change (2. order) :-0.2549846E+01  (-0.1244324E+00)
 number of electron     199.9999925 magnetization       2.4256549
 augmentation part        6.5624238 magnetization       2.1396099

 Broyden mixing:
  rms(total) = 0.32326E+00    rms(broyden)= 0.32202E+00
  rms(prec ) = 0.32373E+00
  weight for this iteration     100.00

 eigenvalues of (default mixing * dielectric matrix)
  average eigenvalue GAMMA=   2.5032
 20.6362  3.1059  2.3969  1.3202  1.3202  0.1099  1.0519  0.9775  0.9775  0.6199
  0.6199  0.6629  0.6629  0.5824

 Free energy of the ion-electron system (eV)
  ---------------------------------------------------
  alpha Z        PSCENC =       372.54520999
  Ewald energy   TEWEN  =     38165.18647767
  -Hartree energ DENC   =    -46410.57791880
  -exchange      EXHF   =         0.00000000
  -V(xc)+E(xc)   XCENC  =       723.77558143
  PAW double counting   =     20568.95545048   -20606.38449124
  entropy T*S    EENTRO =        -0.01051882
  eigenvalues    EBANDS =     -1436.39572048
  atomic energy  EATOM  =      8203.71208324
  Solvation  Ediel_sol  =         0.00000000
  ---------------------------------------------------
  free energy    TOTEN  =      -419.19384653 eV

  energy without entropy =     -419.18332771  energy(sigma->0) =     -419.18858712


--------------------------------------------------------------------------------------------------------




--------------------------------------- Iteration      1(  27)  ---------------------------------------


    POTLOK:  cpu time    0.0331: real time    0.0333
    SETDIJ:  cpu time    0.0072: real time    0.0072
    EDDIAG:  cpu time    0.5065: real time    0.5087
  RMM-DIIS:  cpu time    1.2301: real time    1.2383
    ORTHCH:  cpu time    0.0813: real time    0.0815
       DOS:  cpu time    0.0021: real time    0.0021
    CHARGE:  cpu time    0.1100: real time    0.1102
    MIXING:  cpu time    0.0019: real time    0.0019
    --------------------------------------------
      LOOP:  cpu time    1.9721: real time    1.9832

 eigenvalue-minimisations  :  4879
 total energy-change (2. order) :-0.2650940E+01  (-0.1768284E+00)
 number of electron     199.9999922 magnetization       1.0324686
 augmentation part        6.5896215 magnetization       0.7643909

 Broyden mixing:
  rms(total) = 0.26816E+00    rms(broyden)= 0.26747E+00
  rms(prec ) = 0.27537E+00
  weight for this iteration     100.00

 eigenvalues of (default mixing * dielectric matrix)
[...]
     79      -3.6810      1.00000
     80      -3.6801      1.00000
     81      -3.5671      1.00000
     82      -3.5643      1.00000
     83      -3.3239      1.00000
     84      -3.3229      1.00000
     85      -3.2723      1.00000
     86      -3.2716      1.00000
     87      -2.8225      1.00000
     88      -2.8220      1.00000
     89      -2.3425      1.00000
     90      -2.3420      1.00000
     91      -1.8528      1.00000
     92      -1.8527      1.00000
     93      -1.4145      1.00000
     94      -1.4126      1.00000
     95      -1.1245      1.00000
     96      -1.1220      1.00000
     97      -1.0369      1.00000
     98      -1.0300      1.00000
     99       1.1631      1.00000
    100       1.1703      1.00000
    101       1.2634      1.00000
    102       1.2702      1.00000
    103       3.2132      0.00000
    104       3.2134      0.00000
    105       3.7878      0.00000
    106       3.7888      0.00000
    107       4.5298      0.00000
    108       4.5301      0.00000
    109       5.3554      0.00000
    110       5.3557      0.00000
    111       6.2035      0.00000
    112       6.2039      0.00000
    113       7.0311      0.00000
    114       7.0313      0.00000
    115       7.7815      0.00000
    116       7.7817      0.00000
    117       8.4147      0.00000
    118       8.4149      0.00000
    119       8.8974      0.00000
    120       8.8974      0.00000
    121       8.9815      0.00000
    122       8.9816      0.00000
    123       9.1831      0.00000
    124       9.1836      0.00000
    125       9.2242      0.00000
    126       9.2246      0.00000
    127       9.3836      0.00000
    128       9.3837      0.00000
    129       9.4765      0.00000
    130       9.4768      0.00000
    131       9.7904      0.00000
    132       9.7923      0.00000
    133      10.0614      0.00000
    134      10.0624      0.00000
    135      10.1505      0.00000
    136      10.1512      0.00000
    137      10.5582      0.00000
    138      10.5584      0.00000
    139      10.6531      0.00000
    140      10.6543      0.00000
    141      11.1677      0.00000
    142      11.1682      0.00000
    143      11.2934      0.00000
    144      11.2937      0.00000
    145      11.7850      0.00000
    146      11.7897      0.00000
    147      12.3505      0.00000
    148      12.3571      0.00000
    149      12.4232      0.00000
    150      12.4506      0.00000
    151      13.3284      0.00000
    152      13.5105      0.00000


--------------------------------------------------------------------------------------------------------


 soft charge-density along one line, spin component           1
         0         1         2         3         4         5         6         7         8         9
 total charge-density along one line
 
 soft charge-density along one line, spin component           2
         0         1         2         3         4         5         6         7         8         9
 total charge-density along one line
 
 pseudopotential strength for first ion, spin component:           1
  9.941  13.214   0.000   0.000   0.000  -0.000  -0.000  -0.000
 13.214  17.562   0.000   0.000   0.000  -0.000  -0.000  -0.000
  0.000   0.000  -4.104  -0.000   0.000   8.028   0.000  -0.000
  0.000   0.000  -0.000  -4.096  -0.000   0.000   8.018   0.000
  0.000   0.000   0.000  -0.000  -4.104  -0.000   0.000   8.027
 -0.000  -0.000   8.028   0.000  -0.000 -17.825  -0.000   0.000
 -0.000  -0.000   0.000   8.018   0.000  -0.000 -17.816  -0.000
 -0.000  -0.000  -0.000   0.000   8.027   0.000  -0.000 -17.825
 pseudopotential strength for first ion, spin component:           2
  9.941  13.214   0.000   0.000   0.000  -0.000  -0.000  -0.000
 13.214  17.562   0.000   0.000   0.000  -0.000  -0.000  -0.000
  0.000   0.000  -4.104  -0.000   0.000   8.027   0.000  -0.000
  0.000   0.000  -0.000  -4.096  -0.000   0.000   8.018   0.000
  0.000   0.000   0.000  -0.000  -4.104  -0.000   0.000   8.027
 -0.000  -0.000   8.027   0.000  -0.000 -17.825  -0.000   0.000
 -0.000  -0.000   0.000   8.018   0.000  -0.000 -17.816  -0.000
 -0.000  -0.000  -0.000   0.000   8.027   0.000  -0.000 -17.825
 total augmentation occupancy for first ion, spin component:           1
  8.231  -3.669   0.003  -0.001  -0.004   0.000  -0.000  -0.001
 -3.669   1.694  -0.002   0.000   0.002  -0.000  -0.000   0.000
  0.003  -0.002   1.824  -0.000  -0.001   0.168  -0.000  -0.000
 -0.001   0.000  -0.000   1.202  -0.002  -0.000   0.072  -0.000
 -0.004   0.002  -0.001  -0.002   1.821  -0.000  -0.000   0.168
  0.000  -0.000   0.168  -0.000  -0.000   0.017  -0.000  -0.000
 -0.000  -0.000  -0.000   0.072  -0.000  -0.000   0.005   0.000
 -0.001   0.000  -0.000  -0.000   0.168  -0.000   0.000   0.017
 total augmentation occupancy for first ion, spin component:           2
 -0.000   0.000  -0.000  -0.000  -0.000  -0.000   0.000  -0.000
  0.000  -0.000   0.000   0.000   0.000   0.000  -0.000   0.000
 -0.000   0.000  -0.000   0.000  -0.000  -0.000  -0.000   0.000
 -0.000   0.000   0.000  -0.000  -0.000  -0.000  -0.000   0.000
 -0.000   0.000  -0.000  -0.000   0.000   0.000   0.000  -0.000
 -0.000   0.000  -0.000  -0.000   0.000  -0.000  -0.000   0.000
  0.000  -0.000  -0.000  -0.000   0.000  -0.000  -0.000   0.000
 -0.000   0.000   0.000   0.000  -0.000   0.000   0.000  -0.000


------------------------ aborting loop because EDIFF is reached ----------------------------------------


    CHARGE:  cpu time    0.1109: real time    0.1112
    FORLOC:  cpu time    0.0047: real time    0.0047
    FORNL :  cpu time    0.5137: real time    0.5167
    FORCOR:  cpu time    0.0423: real time    0.0425
    FORHAR:  cpu time    0.0078: real time    0.0080
    MIXING:  cpu time    0.0038: real time    0.0038
    OFIELD:  cpu time    0.0001: real time    0.0002

  DFT-D2 method for vdW energy calculation
  -------------------------------------------------------------------

  Parameters of vdW forcefield:
         C6(Jnm^6/mol)     R0(A)
   -----------------------------
   C        1.750          1.452
   O        0.700          1.342

  IVDW =  10
  VDW_RADIUS =    50.000 A
  VDW_S6 =     0.750
  VDW_SR =     1.000
  VDW_D =    20.000
  LVDW_EWALD = F

  Number of pair interactions contributing to vdW energy: 1155973
  Edisp (eV):   -6.02654
    FORVDW:  cpu time    0.1184: real time    0.1206

 VOLUME and BASIS-vectors are now :
 -----------------------------------------------------------------------------
  energy-cutoff  :      450.00
  volume of cell :      534.83
      direct lattice vectors                 reciprocal lattice vectors
     4.266200066  0.000000000  0.000000000     0.234400634  0.000000000  0.104785421
     0.000000000 39.409500122  0.000000000     0.000000000  0.025374592  0.000000000
    -1.422064714  0.000000000  3.181099698     0.000000000  0.000000000  0.314356699

  length of vectors
     4.266200066 39.409500122  3.484488964     0.256755996  0.025374592  0.314356699


 FORCES acting on ions
    electron-ion (+dipol)            ewald-force                    non-local-force                 convergence-correction
 -----------------------------------------------------------------------------------------------
   -.369E+00 0.470E+02 0.199E+00   0.349E+00 -.470E+02 -.208E+00   0.208E-01 0.209E-01 0.846E-02   0.357E-03 -.276E-02 -.519E-04
   0.368E+00 0.470E+02 -.199E+00   -.347E+00 -.470E+02 0.207E+00   -.260E-01 0.186E-01 -.894E-02   -.361E-03 -.275E-02 0.460E-04
   -.369E+00 -.470E+02 0.199E+00   0.349E+00 0.470E+02 -.208E+00   0.208E-01 -.209E-01 0.846E-02   0.357E-03 0.276E-02 -.518E-04
   0.368E+00 -.470E+02 -.199E+00   -.347E+00 0.470E+02 0.207E+00   -.260E-01 -.186E-01 -.894E-02   -.361E-03 0.276E-02 0.460E-04
   0.182E+00 -.140E+03 0.209E+00   -.160E+00 0.140E+03 -.218E+00   -.116E-01 -.133E-01 -.612E-03   0.118E-02 0.699E-02 -.102E-04
   -.184E+00 -.140E+03 -.210E+00   0.162E+00 0.140E+03 0.218E+00   0.149E-01 -.114E-01 0.823E-03   -.118E-02 0.698E-02 0.235E-04
   -.366E+00 -.234E+03 0.198E+00   0.351E+00 0.234E+03 -.207E+00   0.218E-01 0.442E-02 0.113E-01   -.317E-03 0.942E-02 -.705E-04
   0.374E+00 -.234E+03 -.198E+00   -.361E+00 0.234E+03 0.207E+00   -.162E-01 0.192E-02 -.113E-01   0.320E-03 0.942E-02 0.826E-04
   -.297E+00 -.327E+03 0.200E+00   0.280E+00 0.327E+03 -.208E+00   0.232E-01 -.225E-01 0.367E-02   0.191E-03 0.929E-02 -.158E-04
   0.286E+00 -.328E+03 -.200E+00   -.269E+00 0.328E+03 0.209E+00   -.225E-01 -.245E-01 -.387E-02   -.197E-03 0.929E-02 0.164E-04
   0.190E+00 -.421E+03 0.211E+00   -.180E+00 0.421E+03 -.219E+00   -.308E-02 -.368E-01 -.616E-02   0.132E-02 0.601E-02 0.512E-04
   -.182E+00 -.421E+03 -.211E+00   0.172E+00 0.421E+03 0.219E+00   0.186E-02 -.351E-01 0.558E-02   -.132E-02 0.600E-02 -.590E-04
   -.553E+00 -.514E+03 0.197E+00   0.549E+00 0.514E+03 -.205E+00   0.745E-02 -.164E-01 0.938E-02   -.150E-02 0.153E-02 -.115E-03
   0.551E+00 -.514E+03 -.197E+00   -.547E+00 0.514E+03 0.205E+00   -.106E-01 -.200E-01 -.933E-02   0.151E-02 0.153E-02 0.115E-03
   -.334E+00 -.608E+03 0.201E+00   0.337E+00 0.608E+03 -.207E+00   0.790E-02 0.222E-01 -.176E-01   0.174E-02 -.689E-02 0.917E-04
   0.328E+00 -.608E+03 -.201E+00   -.331E+00 0.608E+03 0.207E+00   -.106E-01 0.261E-01 0.173E-01   -.175E-02 -.689E-02 -.938E-04
   0.257E+00 -.701E+03 0.226E+00   -.278E+00 0.701E+03 -.230E+00   0.383E-01 -.129E-01 -.284E-01   -.549E-04 -.182E-01 -.146E-04
   -.250E+00 -.701E+03 -.225E+00   0.270E+00 0.701E+03 0.230E+00   -.393E-01 -.139E-01 0.281E-01   0.557E-04 -.182E-01 0.186E-04
   -.220E+01 -.794E+03 0.207E+00   0.225E+01 0.794E+03 -.216E+00   -.423E-01 0.674E-01 0.105E-01   -.889E-03 -.283E-01 -.479E-04
   0.220E+01 -.794E+03 -.207E+00   -.224E+01 0.794E+03 0.217E+00   0.397E-01 0.688E-01 -.106E-01   0.916E-03 -.282E-01 0.563E-04
   0.422E-01 -.891E+03 -.119E-01   0.221E+00 0.891E+03 0.388E-01   -.187E+00 0.170E+00 -.237E+00   0.283E-02 -.408E-01 0.597E-04
   -.292E-01 -.891E+03 0.125E-01   -.235E+00 0.891E+03 -.393E-01   0.187E+00 0.172E+00 0.236E+00   -.301E-02 -.410E-01 -.828E-04
   0.529E+01 -.936E+03 0.103E+01   -.411E+01 0.932E+03 -.109E+01   -.129E+01 0.459E+01 0.257E+00   -.221E-02 -.435E-01 0.305E-04
   -.533E+01 -.936E+03 -.103E+01   0.415E+01 0.932E+03 0.109E+01   0.129E+01 0.459E+01 -.256E+00   0.316E-02 -.421E-01 0.305E-04
   0.529E+01 0.936E+03 0.103E+01   -.411E+01 -.932E+03 -.109E+01   -.129E+01 -.459E+01 0.257E+00   -.221E-02 0.435E-01 0.305E-04
   -.533E+01 0.936E+03 -.103E+01   0.415E+01 -.932E+03 0.109E+01   0.129E+01 -.459E+01 -.256E+00   0.316E-02 0.421E-01 0.305E-04
   0.420E-01 0.891E+03 -.119E-01   0.226E+00 -.891E+03 0.389E-01   -.187E+00 -.170E+00 -.237E+00   0.283E-02 0.408E-01 0.597E-04
   -.289E-01 0.891E+03 0.125E-01   -.239E+00 -.891E+03 -.393E-01   0.187E+00 -.172E+00 0.236E+00   -.301E-02 0.410E-01 -.829E-04
   -.220E+01 0.794E+03 0.207E+00   0.224E+01 -.794E+03 -.216E+00   -.423E-01 -.674E-01 0.105E-01   -.889E-03 0.283E-01 -.479E-04
   0.220E+01 0.794E+03 -.207E+00   -.224E+01 -.794E+03 0.217E+00   0.397E-01 -.688E-01 -.106E-01   0.916E-03 0.282E-01 0.563E-04
   0.257E+00 0.701E+03 0.226E+00   -.277E+00 -.701E+03 -.230E+00   0.383E-01 0.129E-01 -.284E-01   -.549E-04 0.182E-01 -.146E-04
   -.250E+00 0.701E+03 -.225E+00   0.270E+00 -.701E+03 0.230E+00   -.393E-01 0.139E-01 0.281E-01   0.556E-04 0.182E-01 0.186E-04
   -.334E+00 0.608E+03 0.201E+00   0.341E+00 -.608E+03 -.207E+00   0.790E-02 -.222E-01 -.176E-01   0.174E-02 0.689E-02 0.917E-04
   0.328E+00 0.608E+03 -.201E+00   -.334E+00 -.608E+03 0.207E+00   -.106E-01 -.261E-01 0.173E-01   -.175E-02 0.689E-02 -.938E-04
   -.553E+00 0.514E+03 0.197E+00   0.549E+00 -.514E+03 -.205E+00   0.745E-02 0.164E-01 0.938E-02   -.150E-02 -.153E-02 -.115E-03
   0.551E+00 0.514E+03 -.197E+00   -.547E+00 -.514E+03 0.205E+00   -.106E-01 0.200E-01 -.933E-02   0.151E-02 -.153E-02 0.115E-03
   0.190E+00 0.421E+03 0.211E+00   -.179E+00 -.421E+03 -.219E+00   -.308E-02 0.368E-01 -.616E-02   0.132E-02 -.601E-02 0.512E-04
   -.182E+00 0.421E+03 -.211E+00   0.172E+00 -.421E+03 0.219E+00   0.186E-02 0.351E-01 0.558E-02   -.132E-02 -.600E-02 -.590E-04
   -.297E+00 0.327E+03 0.200E+00   0.276E+00 -.327E+03 -.208E+00   0.232E-01 0.225E-01 0.367E-02   0.191E-03 -.929E-02 -.158E-04
   0.286E+00 0.328E+03 -.200E+00   -.265E+00 -.328E+03 0.209E+00   -.225E-01 0.245E-01 -.387E-02   -.197E-03 -.929E-02 0.164E-04
   -.366E+00 0.234E+03 0.198E+00   0.347E+00 -.234E+03 -.207E+00   0.218E-01 -.442E-02 0.113E-01   -.317E-03 -.942E-02 -.705E-04
   0.374E+00 0.234E+03 -.198E+00   -.357E+00 -.234E+03 0.207E+00   -.162E-01 -.192E-02 -.113E-01   0.320E-03 -.943E-02 0.826E-04
   0.182E+00 0.140E+03 0.209E+00   -.160E+00 -.140E+03 -.218E+00   -.116E-01 0.133E-01 -.612E-03   0.118E-02 -.699E-02 -.102E-04
   -.184E+00 0.140E+03 -.210E+00   0.162E+00 -.140E+03 0.218E+00   0.149E-01 0.114E-01 0.823E-03   -.118E-02 -.699E-02 0.235E-04
   -.355E+02 -.181E+04 -.900E+00   0.476E+02 0.186E+04 0.110E+01   -.121E+02 -.513E+02 -.239E+00   -.247E-02 -.290E-01 -.159E-05
   0.355E+02 -.181E+04 0.901E+00   -.476E+02 0.186E+04 -.110E+01   0.121E+02 -.513E+02 0.238E+00   0.218E-02 -.291E-01 -.182E-04
   -.355E+02 0.181E+04 -.900E+00   0.476E+02 -.186E+04 0.110E+01   -.121E+02 0.513E+02 -.239E+00   -.247E-02 0.290E-01 -.157E-05
   0.355E+02 0.181E+04 0.901E+00   -.476E+02 -.186E+04 -.110E+01   0.121E+02 0.513E+02 0.238E+00   0.218E-02 0.291E-01 -.182E-04
 -----------------------------------------------------------------------------------------------
   -.170E-01 0.122E+00 0.652E-03   0.107E-12 0.455E-12 -.946E-13   0.136E-01 0.000E+00 -.363E-02   0.101E-02 0.620E-05 0.819E-04
 
 
 POSITION                                       TOTAL-FORCE (eV/Angst)
 -----------------------------------------------------------------------------------
      4.26503      0.00031      0.00000         0.001254     -0.000542     -0.007855
      1.42170      0.00031      0.00000        -0.005871     -0.002416      0.007490
      2.13193      1.23049      0.00000         0.001254      0.000542     -0.007855
      3.55480      1.23049      0.00000        -0.005871      0.002416      0.007490
      4.26577      2.46157      0.00000         0.010645      0.003297     -0.016408
      1.42070      2.46148      0.00000        -0.007412      0.004595      0.016738
      2.13168      3.69262      0.00000         0.004615      0.002293     -0.005293
      3.55481      3.69268      0.00000        -0.000426     -0.000119      0.005385
      4.26504      4.92321      0.00000         0.004780      0.001722     -0.012066
      1.42178      4.92328      0.00000        -0.003419     -0.000230      0.012003
      2.13284      6.15476      0.00000         0.008323      0.001617     -0.021711
      3.55430      6.15472      0.00000        -0.009631      0.003249      0.021254
      4.26484      7.38605      0.00000         0.002271      0.000636     -0.007134
      1.42260      7.38619      0.00000        -0.004814     -0.002536      0.007300
      2.13210      8.61629      0.00000         0.014991     -0.000356     -0.031115
      3.55547      8.61618      0.00000        -0.016451      0.003744      0.030917
      4.26547      9.84847      0.00000         0.017718     -0.001695     -0.040935
      1.42208      9.84851      0.00000        -0.018564     -0.000879      0.040767
      2.12986     11.08080      0.00000         0.000810     -0.001449     -0.006857
      3.55760     11.08074      0.00000        -0.003154      0.000234      0.006910
      0.00924     12.30166      0.00000         0.099004      0.002126     -0.217941
      1.41175     12.30161      0.00000        -0.098991      0.001672      0.217815
      2.13361     13.52895      0.00000        -0.087080      0.004824      0.198705
      3.55322     13.52897      0.00000         0.089794      0.004593     -0.197911
      0.00051     27.11135      0.00000        -0.087080     -0.004824      0.198705
      1.42012     27.11132      0.00000         0.089794     -0.004593     -0.197911
      2.14234     28.33860      0.00000         0.099004     -0.002126     -0.217941
      3.54485     28.33865      0.00000        -0.098991     -0.001672      0.217815
      4.26296     29.55946      0.00000         0.000810      0.001449     -0.006857
      1.42450     29.55952      0.00000        -0.003154     -0.000234      0.006910
      2.13237     30.79183      0.00000         0.017718      0.001695     -0.040935
      3.55518     30.79179      0.00000        -0.018564      0.000879      0.040767
      4.26520     32.02397      0.00000         0.014991      0.000356     -0.031115
      1.42237     32.02408      0.00000        -0.016451     -0.003744      0.030917
      2.13174     33.25421      0.00000         0.002271     -0.000636     -0.007134
      3.55570     33.25407      0.00000        -0.004814      0.002536      0.007300
      4.26594     34.48550      0.00000         0.008323     -0.001617     -0.021711
      1.42120     34.48554      0.00000        -0.009631     -0.003249      0.021254
      2.13194     35.71705      0.00000         0.004780     -0.001722     -0.012066
      3.55488     35.71698      0.00000        -0.003419      0.000230      0.012003
      4.26478     36.94768      0.00000         0.004615     -0.002293     -0.005293
      1.42171     36.94761      0.00000        -0.000426      0.000119      0.005385
      2.13267     38.17873      0.00000         0.010645     -0.003297     -0.016408
      3.55380     38.17882      0.00000        -0.007412     -0.004595      0.016738
      3.96259     14.74613      0.00000         0.013269      0.002563     -0.036835
      1.72392     14.74600      0.00000        -0.011662      0.002122      0.036776
      1.82949     25.89417      0.00000         0.013269     -0.002563     -0.036835
      3.85702     25.89430      0.00000        -0.011662     -0.002122      0.036776
 -----------------------------------------------------------------------------------
    total drift:                               -0.002442      0.121658     -0.002898


--------------------------------------------------------------------------------------------------------



  FREE ENERGIE OF THE ION-ELECTRON SYSTEM (eV)
  ---------------------------------------------------
  free  energy   TOTEN  =      -429.50403434 eV

  energy  without entropy=     -429.49579674  energy(sigma->0) =     -429.49991554
 


--------------------------------------------------------------------------------------------------------


    POTLOK:  cpu time    0.0450: real time    0.0451


--------------------------------------------------------------------------------------------------------




--------------------------------------------------------------------------------------------------------


  
 reached required accuracy - stopping structural energy minimisation
     LOOP+:  cpu time   75.4194: real time   75.9307
    4ORBIT:  cpu time    0.0000: real time    0.0000

 total amount of memory used by VASP MPI-rank0    48266. kBytes
=======================================================================

   base      :      30000. kBytes
   nonlr-proj:       1717. kBytes
   fftplans  :       1314. kBytes
   grid      :       3454. kBytes
   one-center:         30. kBytes
   wavefun   :      11751. kBytes
 
  
  
 General timing and accounting informations for this job:
 ========================================================
  
                  Total CPU time used (sec):       80.264
                            User time (sec):       77.448
                          System time (sec):        2.816
                         Elapsed time (sec):       81.314
  
                   Maximum memory used (kb):       82344.
                   Average memory used (kb):           0.
  
                          Minor page faults:        37305
                          Major page faults:            0
                 Voluntary context switches:         4522
