<?xml version="1.0" encoding="ISO-8859-1"?>
<modeling>
 <generator>
  <i name="program" type="string">vasp </i>
  <i name="version" type="string">5.4.4.18Apr17-6-g9f103f2a35  </i>
  <i name="subversion" type="string">(build Oct 03 2018 13:58:34) complex            parallel </i>
  <i name="platform" type="string">LinuxIFC </i>
  <i name="date" type="string">2022 02 07 </i>
  <i name="time" type="string">15:55:37 </i>
 </generator>
 <incar>
  <i type="string" name="SYSTEM"> metal</i>
  <i type="int" name="ISTART">     0</i>
  <i type="string" name="PREC">normal</i>
  <i type="int" name="IALGO">    48</i>
  <i type="int" name="NSIM">     4</i>
  <i type="int" name="ISPIN">     2</i>
  <i type="int" name="NELM">   120</i>
  <i type="int" name="IBRION">     2</i>
  <i name="EDIFFG">     -0.01000000</i>
  <i type="int" name="NSW">     3</i>
  <i type="int" name="ISIF">     0</i>
  <i type="int" name="ISYM">     2</i>
  <i name="ENCUT">    450.00000000</i>
  <i type="string" name="LREAL">A</i>
  <i type="int" name="ISMEAR">     0</i>
  <i name="SIGMA">      0.05000000</i>
  <i type="logical" name="LWAVE"> F  </i>
  <i type="logical" name="LCHARG"> T  </i>
  <v type="int" name="KPOINT_BSE">    -1     0     0     0</v>
  <i type="int" name="NELM">   120</i>
  <i type="int" name="VOSKOWN">     0</i>
 </incar>
 <structure name="primitive_cell" >
  <crystal>
   <varray name="basis" >
    <v>       4.26620007       0.00000000       0.00000000 </v>
    <v>       0.00000000      39.40950012       0.00000000 </v>
    <v>      -1.42206471       0.00000000       3.18109970 </v>
   </varray>
   <i name="volume">    534.83451311 </i>
   <varray name="rec_basis" >
    <v>       0.23440063       0.00000000       0.10478542 </v>
    <v>       0.00000000       0.02537459       0.00000000 </v>
    <v>       0.00000000       0.00000000       0.31435670 </v>
   </varray>
  </crystal>
  <varray name="positions" >
   <v>      -0.00027365       0.00000783       0.00000000 </v>
   <v>      -0.16675274       0.03122310       0.00000000 </v>
   <v>      -0.16698817      -0.03122806       0.00000000 </v>
   <v>       0.33324726       0.00000789       0.00000000 </v>
   <v>      -0.00010142       0.06246133       0.00000000 </v>
   <v>      -0.00033177      -0.06246764       0.00000000 </v>
   <v>       0.49989858      -0.03123031       0.00000000 </v>
   <v>       0.49972635       0.03122317       0.00000000 </v>
   <v>       0.33301183       0.06245907       0.00000000 </v>
   <v>       0.33324927      -0.06246935       0.00000000 </v>
   <v>      -0.16675073       0.09370033       0.00000000 </v>
   <v>      -0.16673474      -0.09369628       0.00000000 </v>
   <v>       0.49966823       0.09369861       0.00000000 </v>
   <v>       0.49972692      -0.09369434       0.00000000 </v>
   <v>      -0.00027308       0.12492436       0.00000000 </v>
   <v>      -0.00006145      -0.12494449       0.00000000 </v>
   <v>       0.33326526       0.12492629       0.00000000 </v>
   <v>       0.33312972      -0.12494359       0.00000000 </v>
   <v>      -0.16687028       0.15617360       0.00000000 </v>
   <v>      -0.16654271      -0.15619147       0.00000000 </v>
   <v>       0.49993855       0.15617451       0.00000000 </v>
   <v>       0.49968157      -0.15618802       0.00000000 </v>
   <v>      -0.00031843       0.18741802       0.00000000 </v>
   <v>      -0.00023492      -0.18740475       0.00000000 </v>
   <v>       0.33340337      -0.18740214       0.00000000 </v>
   <v>       0.33345729       0.18742148       0.00000000 </v>
   <v>      -0.16659663       0.21863213       0.00000000 </v>
   <v>      -0.16666332      -0.21867082       0.00000000 </v>
   <v>       0.49976508       0.21863473       0.00000000 </v>
   <v>       0.49982960      -0.21866983       0.00000000 </v>
   <v>      -0.00017040       0.24990082       0.00000000 </v>
   <v>      -0.00075831      -0.24994071       0.00000000 </v>
   <v>       0.33333668       0.24990181       0.00000000 </v>
   <v>       0.33390417      -0.24993930       0.00000000 </v>
   <v>      -0.16908599      -0.28091843       0.00000000 </v>
   <v>      -0.16609583       0.28116934       0.00000000 </v>
   <v>      -0.49783527      -0.28091963       0.00000000 </v>
   <v>       0.49924169       0.28117075       0.00000000 </v>
   <v>       0.00011866      -0.31206055       0.00000000 </v>
   <v>       0.00216473       0.31214964       0.00000000 </v>
   <v>       0.33287698      -0.31206124       0.00000000 </v>
   <v>       0.33091401       0.31214843       0.00000000 </v>
   <v>      -0.09591189      -0.34294265       0.00000000 </v>
   <v>      -0.16712302       0.34329222       0.00000000 </v>
   <v>       0.42883310      -0.34294605       0.00000000 </v>
   <v>      -0.49988134       0.34329153       0.00000000 </v>
   <v>      -0.07116696       0.37417703       0.00000000 </v>
   <v>       0.40408709       0.37417364       0.00000000 </v>
  </varray>
 </structure>
 <varray name="primitive_index" >
  <v type="int" >        1 </v>
  <v type="int" >        4 </v>
  <v type="int" >       44 </v>
  <v type="int" >        2 </v>
  <v type="int" >        5 </v>
  <v type="int" >       41 </v>
  <v type="int" >       43 </v>
  <v type="int" >        3 </v>
  <v type="int" >        6 </v>
  <v type="int" >       42 </v>
  <v type="int" >        8 </v>
  <v type="int" >       40 </v>
  <v type="int" >        7 </v>
  <v type="int" >       39 </v>
  <v type="int" >        9 </v>
  <v type="int" >       37 </v>
  <v type="int" >       10 </v>
  <v type="int" >       38 </v>
  <v type="int" >       12 </v>
  <v type="int" >       36 </v>
  <v type="int" >       11 </v>
  <v type="int" >       35 </v>
  <v type="int" >       13 </v>
  <v type="int" >       33 </v>
  <v type="int" >       34 </v>
  <v type="int" >       14 </v>
  <v type="int" >       16 </v>
  <v type="int" >       32 </v>
  <v type="int" >       15 </v>
  <v type="int" >       31 </v>
  <v type="int" >       17 </v>
  <v type="int" >       29 </v>
  <v type="int" >       18 </v>
  <v type="int" >       30 </v>
  <v type="int" >       28 </v>
  <v type="int" >       20 </v>
  <v type="int" >       27 </v>
  <v type="int" >       19 </v>
  <v type="int" >       25 </v>
  <v type="int" >       21 </v>
  <v type="int" >       26 </v>
  <v type="int" >       22 </v>
  <v type="int" >       48 </v>
  <v type="int" >       24 </v>
  <v type="int" >       47 </v>
  <v type="int" >       23 </v>
  <v type="int" >       45 </v>
  <v type="int" >       46 </v>
 </varray>
 <kpoints>
  <generation param="Gamma">
   <v type="int" name="divisions">       6        1        2 </v>
   <v name="usershift">      0.00000000       0.00000000       0.00000000 </v>
   <v name="genvec1">      0.16666667       0.00000000      -0.00000000 </v>
   <v name="genvec2">      0.00000000       1.00000000       0.00000000 </v>
   <v name="genvec3">      0.00000000       0.00000000       0.50000000 </v>
   <v name="shift">      0.00000000       0.00000000       0.00000000 </v>
  </generation>
  <varray name="kpointlist" >
   <v>       0.00000000       0.00000000       0.00000000 </v>
   <v>       0.16666667       0.00000000       0.00000000 </v>
   <v>       0.33333333       0.00000000       0.00000000 </v>
   <v>       0.50000000       0.00000000       0.00000000 </v>
   <v>       0.00000000       0.00000000       0.50000000 </v>
   <v>       0.16666667       0.00000000       0.50000000 </v>
   <v>       0.33333333       0.00000000       0.50000000 </v>
   <v>       0.50000000       0.00000000       0.50000000 </v>
  </varray>
  <varray name="weights" >
   <v>       0.08333333 </v>
   <v>       0.16666667 </v>
   <v>       0.16666667 </v>
   <v>       0.08333333 </v>
   <v>       0.08333333 </v>
   <v>       0.16666667 </v>
   <v>       0.16666667 </v>
   <v>       0.08333333 </v>
  </varray>
 </kpoints>
 <parameters>
  <separator name="general" >
   <i type="string" name="SYSTEM">metal</i>
   <i type="logical" name="LCOMPAT"> F  </i>
  </separator>
  <separator name="electronic" >
   <i type="string" name="PREC">normal</i>
   <i name="ENMAX">    450.00000000</i>
   <i name="ENAUG">    644.87300000</i>
   <i name="EDIFF">      0.00010000</i>
   <i type="int" name="IALGO">    48</i>
   <i type="int" name="IWAVPR">    11</i>
   <i type="int" name="NBANDS">   152</i>
   <i name="NELECT">    200.00000000</i>
   <i type="int" name="TURBO">     0</i>
   <i type="int" name="IRESTART">     0</i>
   <i type="int" name="NREBOOT">     0</i>
   <i type="int" name="NMIN">     0</i>
   <i name="EREF">      0.00000000</i>
   <separator name="electronic smearing" >
    <i type="int" name="ISMEAR">     0</i>
    <i name="SIGMA">      0.05000000</i>
    <i name="KSPACING">      0.50000000</i>
    <i type="logical" name="KGAMMA"> T  </i>
   </separator>
   <separator name="electronic projectors" >
    <i type="logical" name="LREAL"> T  </i>
    <v name="ROPT">     -0.00050000     -0.00050000</v>
    <i type="int" name="LMAXPAW">  -100</i>
    <i type="int" name="LMAXMIX">     2</i>
    <i type="logical" name="NLSPLINE"> F  </i>
   </separator>
   <separator name="electronic startup" >
    <i type="int" name="ISTART">     0</i>
    <i type="int" name="ICHARG">     2</i>
    <i type="int" name="INIWAV">     1</i>
   </separator>
   <separator name="electronic spin" >
    <i type="int" name="ISPIN">     2</i>
    <i type="logical" name="LNONCOLLINEAR"> F  </i>
    <v name="MAGMOM">      1.00000000      1.00000000      1.00000000      1.00000000      1.00000000      1.00000000      1.00000000      1.00000000      1.00000000      1.00000000      1.00000000      1.00000000      1.00000000      1.00000000      1.00000000      1.00000000      1.00000000      1.00000000      1.00000000      1.00000000
      1.00000000      1.00000000      1.00000000      1.00000000      1.00000000      1.00000000      1.00000000      1.00000000      1.00000000      1.00000000      1.00000000      1.00000000      1.00000000      1.00000000      1.00000000      1.00000000      1.00000000      1.00000000      1.00000000      1.00000000
      1.00000000      1.00000000      1.00000000      1.00000000      1.00000000      1.00000000      1.00000000      1.00000000</v>
    <i name="NUPDOWN">     -1.00000000</i>
    <i type="logical" name="LSORBIT"> F  </i>
    <v name="SAXIS">      0.00000000      0.00000000      1.00000000</v>
    <i type="logical" name="LSPIRAL"> F  </i>
    <v name="QSPIRAL">      0.00000000      0.00000000      0.00000000</v>
    <i type="logical" name="LZEROZ"> F  </i>
   </separator>
   <separator name="electronic exchange-correlation" >
    <i type="logical" name="LASPH"> F  </i>
    <i type="logical" name="LMETAGGA"> F  </i>
   </separator>
   <separator name="electronic convergence" >
    <i type="int" name="NELM">   120</i>
    <i type="int" name="NELMDL">   -12</i>
    <i type="int" name="NELMIN">     2</i>
    <i name="ENINI">    450.00000000</i>
    <separator name="electronic convergence detail" >
     <i type="logical" name="LDIAG"> T  </i>
     <i type="logical" name="LSUBROT"> F  </i>
     <i name="WEIMIN">      0.00100000</i>
     <i name="EBREAK">      0.00000016</i>
     <i name="DEPER">      0.30000000</i>
     <i type="int" name="NRMM">     4</i>
     <i name="TIME">      0.40000000</i>
    </separator>
   </separator>
   <separator name="electronic mixer" >
    <i name="AMIX">      0.40000000</i>
    <i name="BMIX">      1.00000000</i>
    <i name="AMIN">      0.10000000</i>
    <i name="AMIX_MAG">      1.60000000</i>
    <i name="BMIX_MAG">      1.00000000</i>
    <separator name="electronic mixer details" >
     <i type="int" name="IMIX">     4</i>
     <i type="logical" name="MIXFIRST"> F  </i>
     <i type="int" name="MAXMIX">   -45</i>
     <i name="WC">    100.00000000</i>
     <i type="int" name="INIMIX">     1</i>
     <i type="int" name="MIXPRE">     1</i>
     <i type="int" name="MREMOVE">     5</i>
    </separator>
   </separator>
   <separator name="electronic dipolcorrection" >
    <i type="logical" name="LDIPOL"> F  </i>
    <i type="logical" name="LMONO"> F  </i>
    <i type="int" name="IDIPOL">     0</i>
    <i name="EPSILON">      1.00000000</i>
    <v name="DIPOL">   -100.00000000   -100.00000000   -100.00000000</v>
    <i name="EFIELD">      0.00000000</i>
   </separator>
  </separator>
  <separator name="grids" >
   <i type="int" name="NGX">    24</i>
   <i type="int" name="NGY">   210</i>
   <i type="int" name="NGZ">    18</i>
   <i type="int" name="NGXF">    48</i>
   <i type="int" name="NGYF">   420</i>
   <i type="int" name="NGZF">    36</i>
   <i type="logical" name="ADDGRID"> F  </i>
  </separator>
  <separator name="ionic" >
   <i type="int" name="NSW">     3</i>
   <i type="int" name="IBRION">     2</i>
   <i type="int" name="MDALGO">     0</i>
   <i type="int" name="ISIF">     0</i>
   <i name="PSTRESS">      0.00000000</i>
   <i name="EDIFFG">     -0.01000000</i>
   <i type="int" name="NFREE">     1</i>
   <i name="POTIM">      0.50000000</i>
   <i name="SMASS">     -3.00000000</i>
   <i name="SCALEE">      1.00000000</i>
  </separator>
  <separator name="ionic md" >
   <i name="TEBEG">      0.00010000</i>
   <i name="TEEND">      0.00010000</i>
   <i type="int" name="NBLOCK">     1</i>
   <i type="int" name="KBLOCK">     3</i>
   <i type="int" name="NPACO">   256</i>
   <i name="APACO">     16.00000000</i>
  </separator>
  <separator name="symmetry" >
   <i type="int" name="ISYM">     2</i>
   <i name="SYMPREC">      0.00001000</i>
  </separator>
  <separator name="dos" >
   <i type="int" name="LORBIT">     0</i>
   <v name="RWIGS">     -1.00000000     -1.00000000</v>
   <i type="int" name="NEDOS">   301</i>
   <i name="EMIN">     10.00000000</i>
   <i name="EMAX">    -10.00000000</i>
   <i name="EFERMI">      0.00000000</i>
  </separator>
  <separator name="writing" >
   <i type="int" name="NWRITE">     2</i>
   <i type="logical" name="LWAVE"> F  </i>
   <i type="logical" name="LDOWNSAMPLE"> F  </i>
   <i type="logical" name="LCHARG"> T  </i>
   <i type="logical" name="LPARD"> F  </i>
   <i type="logical" name="LVTOT"> F  </i>
   <i type="logical" name="LVHAR"> F  </i>
   <i type="logical" name="LELF"> F  </i>
   <i type="logical" name="LOPTICS"> F  </i>
   <v name="STM">      0.00000000      0.00000000      0.00000000      0.00000000      0.00000000      0.00000000      0.00000000</v>
  </separator>
  <separator name="performance" >
   <i type="int" name="NPAR">     4</i>
   <i type="int" name="NSIM">     4</i>
   <i type="int" name="NBLK">    -1</i>
   <i type="logical" name="LPLANE"> T  </i>
   <i type="logical" name="LSCALAPACK"> T  </i>
   <i type="logical" name="LSCAAWARE"> F  </i>
   <i type="logical" name="LSCALU"> F  </i>
   <i type="logical" name="LASYNC"> F  </i>
   <i type="logical" name="LORBITALREAL"> F  </i>
  </separator>
  <separator name="miscellaneous" >
   <i type="int" name="IDIOT">     3</i>
   <i type="int" name="ISPECIAL">     0</i>
   <i type="logical" name="LMUSIC"> F  </i>
   <v name="POMASS">     12.01100000     16.00000000</v>
   <v name="DARWINR">      0.00000000      0.00000000</v>
   <v name="DARWINV">      1.00000000      1.00000000</v>
   <i type="logical" name="LCORR"> T  </i>
  </separator>
  <i type="logical" name="GGA_COMPAT"> T  </i>
  <i type="logical" name="LBERRY"> F  </i>
  <i type="int" name="ICORELEVEL">     0</i>
  <i type="logical" name="LDAU"> F  </i>
  <i type="int" name="I_CONSTRAINED_M">     0</i>
  <separator name="electronic exchange-correlation" >
   <i type="string" name="GGA">--</i>
   <i type="int" name="VOSKOWN">     0</i>
   <i type="logical" name="LHFCALC"> F  </i>
   <i type="string" name="PRECFOCK"></i>
   <i type="logical" name="LSYMGRAD"> F  </i>
   <i type="logical" name="LHFONE"> F  </i>
   <i type="logical" name="LRHFCALC"> F  </i>
   <i type="logical" name="LTHOMAS"> F  </i>
   <i type="logical" name="LMODELHF"> F  </i>
   <i name="ENCUT4O">     -1.00000000</i>
   <i type="int" name="EXXOEP">     0</i>
   <i type="int" name="FOURORBIT">     0</i>
   <i name="AEXX">      0.00000000</i>
   <i name="HFALPHA">      0.00000000</i>
   <i name="MCALPHA">      0.00000000</i>
   <i name="ALDAX">      1.00000000</i>
   <i name="AGGAX">      1.00000000</i>
   <i name="ALDAC">      1.00000000</i>
   <i name="AGGAC">      1.00000000</i>
   <i type="int" name="NKREDX">     1</i>
   <i type="int" name="NKREDY">     1</i>
   <i type="int" name="NKREDZ">     1</i>
   <i type="logical" name="SHIFTRED"> F  </i>
   <i type="logical" name="ODDONLY"> F  </i>
   <i type="logical" name="EVENONLY"> F  </i>
   <i type="int" name="LMAXFOCK">     0</i>
   <i type="int" name="NMAXFOCKAE">     0</i>
   <i type="logical" name="LFOCKAEDFT"> F  </i>
   <i name="HFSCREEN">      0.00000000</i>
   <i name="HFSCREENC">      0.00000000</i>
   <i type="int" name="NBANDSGWLOW">     0</i>
  </separator>
  <separator name="vdW DFT" >
   <i type="logical" name="LUSE_VDW"> F  </i>
   <i name="Zab_VDW">     -0.84910000</i>
   <i name="PARAM1">      0.12340000</i>
   <i name="PARAM2">      1.00000000</i>
   <i name="PARAM3">      0.00000000</i>
  </separator>
  <separator name="model GW" >
   <i type="int" name="MODEL_GW">     0</i>
   <i name="MODEL_EPS0">      6.68543141</i>
   <i name="MODEL_ALPHA">      1.00000000</i>
  </separator>
  <separator name="linear response parameters" >
   <i type="logical" name="LEPSILON"> F  </i>
   <i type="logical" name="LRPA"> F  </i>
   <i type="logical" name="LNABLA"> F  </i>
   <i type="logical" name="LVEL"> F  </i>
   <i type="int" name="KINTER">     0</i>
   <i name="CSHIFT">      0.10000000</i>
   <i name="OMEGAMAX">     -1.00000000</i>
   <i name="DEG_THRESHOLD">      0.00200000</i>
   <i name="RTIME">     -0.10000000</i>
   <i name="WPLASMAI">      0.00000000</i>
   <v name="DFIELD">      0.00000000      0.00000000      0.00000000</v>
   <v name="WPLASMA">      0.00000000      0.00000000      0.00000000      0.00000000      0.00000000      0.00000000      0.00000000      0.00000000      0.00000000</v>
  </separator>
  <separator name="orbital magnetization" >
   <i type="logical" name="NUCIND"> F  </i>
   <v name="MAGPOS">      0.00000000      0.00000000      0.00000000</v>
   <i type="logical" name="LNICSALL"> T  </i>
   <i type="logical" name="ORBITALMAG"> F  </i>
   <i type="logical" name="LMAGBLOCH"> F  </i>
   <i type="logical" name="LCHIMAG"> F  </i>
   <i type="logical" name="LGAUGE"> T  </i>
   <i type="int" name="MAGATOM">     0</i>
   <v name="MAGDIPOL">      0.00000000      0.00000000      0.00000000</v>
   <v name="AVECCONST">      0.00000000      0.00000000      0.00000000</v>
  </separator>
  <separator name="response functions" >
   <i type="logical" name="LADDER"> F  </i>
   <i type="logical" name="LRPAFORCE"> F  </i>
   <i type="logical" name="LFXC"> F  </i>
   <i type="logical" name="LHARTREE"> T  </i>
   <i type="int" name="IBSE">     0</i>
   <v type="int" name="KPOINT">    -1     0     0     0</v>
   <i type="logical" name="LTCTE"> F  </i>
   <i type="logical" name="LTETE"> F  </i>
   <i type="logical" name="LTRIPLET"> F  </i>
   <i type="logical" name="LFXCEPS"> F  </i>
   <i type="logical" name="LFXHEG"> F  </i>
   <i type="int" name="NATURALO">     2</i>
   <i type="logical" name="L2ORDER"> F  </i>
   <i type="logical" name="LMP2LT"> F  </i>
   <i type="logical" name="LUSEW"> F  </i>
   <i name="ENCUTGW">     -2.00000000</i>
   <i name="ENCUTGWSOFT">     -2.00000000</i>
   <i name="ENCUTLF">     -1.00000000</i>
   <i type="int" name="LMAXMP2">    -1</i>
   <i name="SCISSOR">      0.00000000</i>
   <i type="int" name="NOMEGA">     0</i>
   <i type="int" name="NOMEGAR">     0</i>
   <i type="int" name="NBANDSGW">    -1</i>
   <i type="int" name="NBANDSO">    -1</i>
   <i type="int" name="NBANDSV">    -1</i>
   <i type="int" name="NELM">   120</i>
   <i type="int" name="NELMHF">     1</i>
   <i type="int" name="DIM">     3</i>
   <i type="int" name="ANTIRES">     0</i>
   <i name="OMEGAMAX">    -30.00000000</i>
   <i name="OMEGAMIN">    -30.00000000</i>
   <i name="OMEGATL">   -200.00000000</i>
   <i type="int" name="OMEGAGRID">   140</i>
   <i name="CSHIFT">     -0.10000000</i>
   <i type="logical" name="SELFENERGY"> F  </i>
   <i type="logical" name="LSPECTRAL"> F  </i>
   <i type="logical" name="LSPECTRALGW"> F  </i>
   <i type="logical" name="LSINGLES"> F  </i>
   <i type="logical" name="LFERMIGW"> F  </i>
   <i type="logical" name="ODDONLYGW"> F  </i>
   <i type="logical" name="EVENONLYGW"> F  </i>
   <i type="int" name="NKREDLFX">     1</i>
   <i type="int" name="NKREDLFY">     1</i>
   <i type="int" name="NKREDLFZ">     1</i>
   <i type="int" name="MAXMEM">  2800</i>
   <i type="int" name="TELESCOPE">     0</i>
   <i type="int" name="TAUPAR">     1</i>
   <i type="int" name="OMEGAPAR">    -1</i>
   <i name="LAMBDA">      1.00000000</i>
  </separator>
  <separator name="External order field" >
   <i name="OFIELD_KAPPA">      0.00000000</i>
   <v name="OFIELD_K">      0.00000000      0.00000000      0.00000000</v>
   <i name="OFIELD_Q6_NEAR">      0.00000000</i>
   <i name="OFIELD_Q6_FAR">      0.00000000</i>
   <i name="OFIELD_A">      0.00000000</i>
  </separator>
 </parameters>
 <atominfo>
  <atoms>      48 </atoms>
  <types>       2 </types>
  <array name="atoms" >
   <dimension dim="1">ion</dimension>
   <field type="string">element</field>
   <field type="int">atomtype</field>
   <set>
    <rc><c>C </c><c>   1</c></rc>
    <rc><c>C </c><c>   1</c></rc>
    <rc><c>C </c><c>   1</c></rc>
    <rc><c>C </c><c>   1</c></rc>
    <rc><c>C </c><c>   1</c></rc>
    <rc><c>C </c><c>   1</c></rc>
    <rc><c>C </c><c>   1</c></rc>
    <rc><c>C </c><c>   1</c></rc>
    <rc><c>C </c><c>   1</c></rc>
    <rc><c>C </c><c>   1</c></rc>
    <rc><c>C </c><c>   1</c></rc>
    <rc><c>C </c><c>   1</c></rc>
    <rc><c>C </c><c>   1</c></rc>
    <rc><c>C </c><c>   1</c></rc>
    <rc><c>C </c><c>   1</c></rc>
    <rc><c>C </c><c>   1</c></rc>
    <rc><c>C </c><c>   1</c></rc>
    <rc><c>C </c><c>   1</c></rc>
    <rc><c>C </c><c>   1</c></rc>
    <rc><c>C </c><c>   1</c></rc>
    <rc><c>C </c><c>   1</c></rc>
    <rc><c>C </c><c>   1</c></rc>
    <rc><c>C </c><c>   1</c></rc>
    <rc><c>C </c><c>   1</c></rc>
    <rc><c>C </c><c>   1</c></rc>
    <rc><c>C </c><c>   1</c></rc>
    <rc><c>C </c><c>   1</c></rc>
    <rc><c>C </c><c>   1</c></rc>
    <rc><c>C </c><c>   1</c></rc>
    <rc><c>C </c><c>   1</c></rc>
    <rc><c>C </c><c>   1</c></rc>
    <rc><c>C </c><c>   1</c></rc>
    <rc><c>C </c><c>   1</c></rc>
    <rc><c>C </c><c>   1</c></rc>
    <rc><c>C </c><c>   1</c></rc>
    <rc><c>C </c><c>   1</c></rc>
    <rc><c>C </c><c>   1</c></rc>
    <rc><c>C </c><c>   1</c></rc>
    <rc><c>C </c><c>   1</c></rc>
    <rc><c>C </c><c>   1</c></rc>
    <rc><c>C </c><c>   1</c></rc>
    <rc><c>C </c><c>   1</c></rc>
    <rc><c>C </c><c>   1</c></rc>
    <rc><c>C </c><c>   1</c></rc>
    <rc><c>O </c><c>   2</c></rc>
    <rc><c>O </c><c>   2</c></rc>
    <rc><c>O </c><c>   2</c></rc>
    <rc><c>O </c><c>   2</c></rc>
   </set>
  </array>
  <array name="atomtypes" >
   <dimension dim="1">type</dimension>
   <field type="int">atomspertype</field>
   <field type="string">element</field>
   <field>mass</field>
   <field>valence</field>
   <field type="string">pseudopotential</field>
   <set>
    <rc><c>  44</c><c>C </c><c>     12.01100000</c><c>      4.00000000</c><c>  PAW_PBE C 08Apr2002                   </c></rc>
    <rc><c>   4</c><c>O </c><c>     16.00000000</c><c>      6.00000000</c><c>  PAW_PBE O 08Apr2002                   </c></rc>
   </set>
  </array>
 </atominfo>
 <structure name="initialpos" >
  <crystal>
   <varray name="basis" >
    <v>       4.26620007       0.00000000       0.00000000 </v>
    <v>       0.00000000      39.40950012       0.00000000 </v>
    <v>      -1.42206471       0.00000000       3.18109970 </v>
   </varray>
   <i name="volume">    534.83451311 </i>
   <varray name="rec_basis" >
    <v>       0.23440063       0.00000000       0.10478542 </v>
    <v>       0.00000000       0.02537459       0.00000000 </v>
    <v>       0.00000000       0.00000000       0.31435670 </v>
   </varray>
  </crystal>
  <varray name="positions" >
   <v>       0.99972635       0.00000783       0.00000000 </v>
   <v>       0.33324726       0.00000789       0.00000000 </v>
   <v>       0.49972635       0.03122317       0.00000000 </v>
   <v>       0.83324726       0.03122310       0.00000000 </v>
   <v>       0.99989858       0.06246133       0.00000000 </v>
   <v>       0.33301183       0.06245907       0.00000000 </v>
   <v>       0.49966823       0.09369861       0.00000000 </v>
   <v>       0.83324927       0.09370033       0.00000000 </v>
   <v>       0.99972692       0.12492436       0.00000000 </v>
   <v>       0.33326526       0.12492629       0.00000000 </v>
   <v>       0.49993855       0.15617451       0.00000000 </v>
   <v>       0.83312972       0.15617360       0.00000000 </v>
   <v>       0.99968157       0.18741802       0.00000000 </v>
   <v>       0.33345729       0.18742148       0.00000000 </v>
   <v>       0.49976508       0.21863473       0.00000000 </v>
   <v>       0.83340337       0.21863213       0.00000000 </v>
   <v>       0.99982960       0.24990082       0.00000000 </v>
   <v>       0.33333668       0.24990181       0.00000000 </v>
   <v>       0.49924169       0.28117075       0.00000000 </v>
   <v>       0.83390417       0.28116934       0.00000000 </v>
   <v>       0.00216473       0.31214964       0.00000000 </v>
   <v>       0.33091401       0.31214843       0.00000000 </v>
   <v>       0.50011866       0.34329153       0.00000000 </v>
   <v>       0.83287698       0.34329222       0.00000000 </v>
   <v>       0.00011866       0.68793945       0.00000000 </v>
   <v>       0.33287698       0.68793876       0.00000000 </v>
   <v>       0.50216473       0.71908037       0.00000000 </v>
   <v>       0.83091401       0.71908157       0.00000000 </v>
   <v>       0.99924169       0.75005929       0.00000000 </v>
   <v>       0.33390417       0.75006070       0.00000000 </v>
   <v>       0.49982960       0.78133017       0.00000000 </v>
   <v>       0.83333668       0.78132918       0.00000000 </v>
   <v>       0.99976508       0.81259525       0.00000000 </v>
   <v>       0.33340337       0.81259786       0.00000000 </v>
   <v>       0.49968157       0.84381198       0.00000000 </v>
   <v>       0.83345729       0.84380853       0.00000000 </v>
   <v>       0.99993855       0.87505551       0.00000000 </v>
   <v>       0.33312972       0.87505641       0.00000000 </v>
   <v>       0.49972692       0.90630566       0.00000000 </v>
   <v>       0.83326526       0.90630372       0.00000000 </v>
   <v>       0.99966823       0.93753236       0.00000000 </v>
   <v>       0.33324927       0.93753065       0.00000000 </v>
   <v>       0.49989858       0.96876969       0.00000000 </v>
   <v>       0.83301183       0.96877194       0.00000000 </v>
   <v>       0.92883304       0.37417703       0.00000000 </v>
   <v>       0.40408709       0.37417364       0.00000000 </v>
   <v>       0.42883310       0.65705395       0.00000000 </v>
   <v>       0.90408811       0.65705735       0.00000000 </v>
  </varray>
  <varray name="selective"  type="logical" >
   <v type="logical" >  T  T  F </v>
   <v type="logical" >  T  T  F </v>
   <v type="logical" >  T  T  F </v>
   <v type="logical" >  T  T  F </v>
   <v type="logical" >  T  T  F </v>
   <v type="logical" >  T  T  F </v>
   <v type="logical" >  T  T  F </v>
   <v type="logical" >  T  T  F </v>
   <v type="logical" >  T  T  F </v>
   <v type="logical" >  T  T  F </v>
   <v type="logical" >  T  T  F </v>
   <v type="logical" >  T  T  F </v>
   <v type="logical" >  T  T  F </v>
   <v type="logical" >  T  T  F </v>
   <v type="logical" >  T  T  F </v>
   <v type="logical" >  T  T  F </v>
   <v type="logical" >  T  T  F </v>
   <v type="logical" >  T  T  F </v>
   <v type="logical" >  T  T  F </v>
   <v type="logical" >  T  T  F </v>
   <v type="logical" >  T  T  F </v>
   <v type="logical" >  T  T  F </v>
   <v type="logical" >  T  T  F </v>
   <v type="logical" >  T  T  F </v>
   <v type="logical" >  T  T  F </v>
   <v type="logical" >  T  T  F </v>
   <v type="logical" >  T  T  F </v>
   <v type="logical" >  T  T  F </v>
   <v type="logical" >  T  T  F </v>
   <v type="logical" >  T  T  F </v>
   <v type="logical" >  T  T  F </v>
   <v type="logical" >  T  T  F </v>
   <v type="logical" >  T  T  F </v>
   <v type="logical" >  T  T  F </v>
   <v type="logical" >  T  T  F </v>
   <v type="logical" >  T  T  F </v>
   <v type="logical" >  T  T  F </v>
   <v type="logical" >  T  T  F </v>
   <v type="logical" >  T  T  F </v>
   <v type="logical" >  T  T  F </v>
   <v type="logical" >  T  T  F </v>
   <v type="logical" >  T  T  F </v>
   <v type="logical" >  T  T  F </v>
   <v type="logical" >  T  T  F </v>
   <v type="logical" >  T  T  F </v>
   <v type="logical" >  T  T  F </v>
   <v type="logical" >  T  T  F </v>
   <v type="logical" >  T  T  F </v>
  </varray>
  <nose>
   <v>      -3.00000000       0.00000000       0.00010000       0.00010000 </v>
  </nose>
 </structure>
 <calculation>
  <scstep>
   <time name="diag">    0.53    0.53</time>
   <time name="diis">    0.67    0.68</time>
   <time name="orth">    0.08    0.08</time>
   <time name="total">    1.33    1.45</time>
   <energy>
    <i name="alphaZ">    372.54520999 </i>
    <i name="ewald">  38165.18647767 </i>
    <i name="hartreedc"> -46010.75833635 </i>
    <i name="XCdc">    702.62007813 </i>
    <i name="pawpsdc">   6154.95120234 </i>
    <i name="pawaedc">  -6186.79106147 </i>
    <i name="eentropy">     -0.00590347 </i>
    <i name="bandstr">    769.24144365 </i>
    <i name="atom">   8203.71208324 </i>
    <i name="e_fr_energy">   2170.70119373 </i>
    <i name="e_wo_entrp">   2170.70709721 </i>
    <i name="e_0_energy">   2170.70414547 </i>
   </energy>
  </scstep>
  <scstep>
   <time name="diag">    0.52    0.52</time>
   <time name="diis">    0.68    0.68</time>
   <time name="orth">    0.08    0.08</time>
   <time name="total">    1.28    1.28</time>
   <energy>
    <i name="e_fr_energy">    441.81505794 </i>
    <i name="e_wo_entrp">    441.82339895 </i>
    <i name="e_0_energy">    441.81922844 </i>
   </energy>
  </scstep>
  <scstep>
   <time name="diag">    0.51    0.51</time>
   <time name="diis">    0.68    0.68</time>
   <time name="orth">    0.08    0.08</time>
   <time name="total">    1.27    1.27</time>
   <energy>
    <i name="e_fr_energy">   -145.93931191 </i>
    <i name="e_wo_entrp">   -145.93303039 </i>
    <i name="e_0_energy">   -145.93617115 </i>
   </energy>
  </scstep>
  <scstep>
   <time name="diag">    0.51    0.51</time>
   <time name="diis">    0.68    0.68</time>
   <time name="orth">    0.08    0.08</time>
   <time name="total">    1.27    1.28</time>
   <energy>
    <i name="e_fr_energy">   -349.84406621 </i>
    <i name="e_wo_entrp">   -349.84187418 </i>
    <i name="e_0_energy">   -349.84297019 </i>
   </energy>
  </scstep>
  <scstep>
   <time name="diag">    0.51    0.51</time>
   <time name="diis">    0.67    0.68</time>
   <time name="orth">    0.08    0.08</time>
   <time name="total">    1.27    1.27</time>
   <energy>
    <i name="e_fr_energy">   -404.59308823 </i>
    <i name="e_wo_entrp">   -404.59077290 </i>
    <i name="e_0_energy">   -404.59193057 </i>
   </energy>
  </scstep>
  <scstep>
   <time name="diag">    0.51    0.51</time>
   <time name="diis">    0.68    0.68</time>
   <time name="orth">    0.08    0.08</time>
   <time name="total">    1.27    1.27</time>
   <energy>
    <i name="e_fr_energy">   -422.58191198 </i>
    <i name="e_wo_entrp">   -422.58111578 </i>
    <i name="e_0_energy">   -422.58151388 </i>
   </energy>
  </scstep>
  <scstep>
   <time name="diag">    0.50    0.50</time>
   <time name="diis">    0.67    0.68</time>
   <time name="orth">    0.08    0.08</time>
   <time name="total">    1.26    1.27</time>
   <energy>
    <i name="e_fr_energy">   -428.60391176 </i>
    <i name="e_wo_entrp">   -428.60005991 </i>
    <i name="e_0_energy">   -428.60198583 </i>
   </energy>
  </scstep>
  <scstep>
   <time name="diag">    0.51    0.51</time>
   <time name="diis">    0.68    0.68</time>
   <time name="orth">    0.08    0.08</time>
   <time name="total">    1.27    1.28</time>
   <energy>
    <i name="e_fr_energy">   -430.91789505 </i>
    <i name="e_wo_entrp">   -430.91511907 </i>
    <i name="e_0_energy">   -430.91650706 </i>
   </energy>
  </scstep>
  <scstep>
   <time name="diag">    0.52    0.52</time>
   <time name="diis">    1.32    1.32</time>
   <time name="orth">    0.08    0.08</time>
   <time name="total">    1.92    1.92</time>
   <energy>
    <i name="e_fr_energy">   -432.33617826 </i>
    <i name="e_wo_entrp">   -432.33220399 </i>
    <i name="e_0_energy">   -432.33419113 </i>
   </energy>
  </scstep>
  <scstep>
   <time name="diag">    0.51    0.51</time>
   <time name="diis">    1.51    1.51</time>
   <time name="orth">    0.08    0.08</time>
   <time name="total">    2.10    2.11</time>
   <energy>
    <i name="e_fr_energy">   -432.46365107 </i>
    <i name="e_wo_entrp">   -432.45948164 </i>
    <i name="e_0_energy">   -432.46156636 </i>
   </energy>
  </scstep>
  <scstep>
   <time name="diag">    0.52    0.52</time>
   <time name="diis">    1.30    1.30</time>
   <time name="orth">    0.08    0.08</time>
   <time name="total">    1.90    1.91</time>
   <energy>
    <i name="e_fr_energy">   -432.46688313 </i>
    <i name="e_wo_entrp">   -432.46270477 </i>
    <i name="e_0_energy">   -432.46479395 </i>
   </energy>
  </scstep>
  <scstep>
   <time name="diag">    0.51    0.51</time>
   <time name="diis">    1.06    1.06</time>
   <time name="orth">    0.08    0.08</time>
   <time name="total">    1.76    1.77</time>
   <energy>
    <i name="e_fr_energy">   -432.46731942 </i>
    <i name="e_wo_entrp">   -432.46314092 </i>
    <i name="e_0_energy">   -432.46523017 </i>
   </energy>
  </scstep>
  <scstep>
   <time name="diag">    0.52    0.53</time>
   <time name="diis">    1.20    1.20</time>
   <time name="orth">    0.08    0.08</time>
   <time name="total">    1.96    1.96</time>
   <energy>
    <i name="e_fr_energy">   -306.51160869 </i>
    <i name="e_wo_entrp">   -306.50216569 </i>
    <i name="e_0_energy">   -306.50688719 </i>
   </energy>
  </scstep>
  <scstep>
   <time name="diag">    0.51    0.51</time>
   <time name="diis">    1.22    1.22</time>
   <time name="orth">    0.08    0.08</time>
   <time name="total">    1.96    1.96</time>
   <energy>
    <i name="e_fr_energy">   -295.08668726 </i>
    <i name="e_wo_entrp">   -295.08097928 </i>
    <i name="e_0_energy">   -295.08383327 </i>
   </energy>
  </scstep>
  <scstep>
   <time name="diag">    0.51    0.51</time>
   <time name="diis">    1.21    1.21</time>
   <time name="orth">    0.08    0.08</time>
   <time name="total">    1.95    1.95</time>
   <energy>
    <i name="e_fr_energy">   -322.33140012 </i>
    <i name="e_wo_entrp">   -322.32096424 </i>
    <i name="e_0_energy">   -322.32618218 </i>
   </energy>
  </scstep>
  <scstep>
   <time name="diag">    0.51    0.51</time>
   <time name="diis">    1.21    1.21</time>
   <time name="orth">    0.12    0.12</time>
   <time name="total">    2.01    2.06</time>
   <energy>
    <i name="e_fr_energy">   -267.13410366 </i>
    <i name="e_wo_entrp">   -267.12993148 </i>
    <i name="e_0_energy">   -267.13201757 </i>
   </energy>
  </scstep>
  <scstep>
   <time name="diag">    0.51    0.51</time>
   <time name="diis">    1.20    1.20</time>
   <time name="orth">    0.08    0.08</time>
   <time name="total">    1.95    1.95</time>
   <energy>
    <i name="e_fr_energy">   -267.65128174 </i>
    <i name="e_wo_entrp">   -267.64096263 </i>
    <i name="e_0_energy">   -267.64612219 </i>
   </energy>
  </scstep>
  <scstep>
   <time name="diag">    0.51    0.51</time>
   <time name="diis">    1.21    1.21</time>
   <time name="orth">    0.08    0.08</time>
   <time name="total">    1.95    1.95</time>
   <energy>
    <i name="e_fr_energy">   -276.30706495 </i>
    <i name="e_wo_entrp">   -276.29370338 </i>
    <i name="e_0_energy">   -276.30038416 </i>
   </energy>
  </scstep>
  <scstep>
   <time name="diag">    0.50    0.51</time>
   <time name="diis">    1.21    1.21</time>
   <time name="orth">    0.08    0.08</time>
   <time name="total">    1.95    1.95</time>
   <energy>
    <i name="e_fr_energy">   -278.32710062 </i>
    <i name="e_wo_entrp">   -278.31193083 </i>
    <i name="e_0_energy">   -278.31951572 </i>
   </energy>
  </scstep>
  <scstep>
   <time name="diag">    0.51    0.51</time>
   <time name="diis">    1.19    1.20</time>
   <time name="orth">    0.08    0.08</time>
   <time name="total">    1.93    1.94</time>
   <energy>
    <i name="e_fr_energy">   -325.89208042 </i>
    <i name="e_wo_entrp">   -325.88382313 </i>
    <i name="e_0_energy">   -325.88795177 </i>
   </energy>
  </scstep>
  <scstep>
   <time name="diag">    0.50    0.51</time>
   <time name="diis">    1.20    1.20</time>
   <time name="orth">    0.08    0.08</time>
   <time name="total">    1.93    1.94</time>
   <energy>
    <i name="e_fr_energy">   -364.74874977 </i>
    <i name="e_wo_entrp">   -364.73699203 </i>
    <i name="e_0_energy">   -364.74287090 </i>
   </energy>
  </scstep>
  <scstep>
   <time name="diag">    0.51    0.51</time>
   <time name="diis">    1.21    1.21</time>
   <time name="orth">    0.08    0.08</time>
   <time name="total">    1.95    1.96</time>
   <energy>
    <i name="e_fr_energy">   -376.68124582 </i>
    <i name="e_wo_entrp">   -376.67283773 </i>
    <i name="e_0_energy">   -376.67704178 </i>
   </energy>
  </scstep>
  <scstep>
   <time name="diag">    0.51    0.51</time>
   <time name="diis">    1.19    1.20</time>
   <time name="orth">    0.08    0.08</time>
   <time name="total">    1.94    1.94</time>
   <energy>
    <i name="e_fr_energy">   -407.97483250 </i>
    <i name="e_wo_entrp">   -407.95953407 </i>
    <i name="e_0_energy">   -407.96718329 </i>
   </energy>
  </scstep>
  <scstep>
   <time name="diag">    0.51    0.51</time>
   <time name="diis">    1.23    1.23</time>
   <time name="orth">    0.08    0.08</time>
   <time name="total">    1.97    1.98</time>
   <energy>
    <i name="e_fr_energy">   -414.10718895 </i>
    <i name="e_wo_entrp">   -414.09601082 </i>
    <i name="e_0_energy">   -414.10159988 </i>
   </energy>
  </scstep>
  <scstep>
   <time name="diag">    0.51    0.51</time>
   <time name="diis">    1.23    1.23</time>
   <time name="orth">    0.08    0.08</time>
   <time name="total">    1.98    1.98</time>
   <energy>
    <i name="e_fr_energy">   -416.64400034 </i>
    <i name="e_wo_entrp">   -416.62652497 </i>
    <i name="e_0_energy">   -416.63526266 </i>
   </energy>
  </scstep>
  <scstep>
   <time name="diag">    0.50    0.51</time>
   <time name="diis">    1.20    1.20</time>
   <time name="orth">    0.08    0.08</time>
   <time name="total">    1.94    1.95</time>
   <energy>
    <i name="e_fr_energy">   -419.19384653 </i>
    <i name="e_wo_entrp">   -419.18332771 </i>
    <i name="e_0_energy">   -419.18858712 </i>
   </energy>
  </scstep>
  <scstep>
   <time name="diag">    0.51    0.51</time>
   <time name="diis">    1.23    1.24</time>
   <time name="orth">    0.08    0.08</time>
   <time name="total">    1.97    1.98</time>
   <energy>
    <i name="e_fr_energy">   -421.84478669 </i>
    <i name="e_wo_entrp">   -421.83021147 </i>
    <i name="e_0_energy">   -421.83749908 </i>
   </energy>
  </scstep>
  <scstep>
   <time name="diag">    0.51    0.51</time>
   <time name="diis">    1.19    1.20</time>
   <time name="orth">    0.08    0.08</time>
   <time name="total">    1.94    1.94</time>
   <energy>
    <i name="e_fr_energy">   -422.55380790 </i>
    <i name="e_wo_entrp">   -422.54859386 </i>
    <i name="e_0_energy">   -422.55120088 </i>
   </energy>
  </scstep>
  <scstep>
   <time name="diag">    0.50    0.51</time>
   <time name="diis">    1.20    1.21</time>
   <time name="orth">    0.08    0.08</time>
   <time name="total">    1.94    1.95</time>
   <energy>
    <i name="e_fr_energy">   -422.98286572 </i>
    <i name="e_wo_entrp">   -422.98108092 </i>
    <i name="e_0_energy">   -422.98197332 </i>
   </energy>
  </scstep>
  <scstep>
   <time name="diag">    0.50    0.51</time>
   <time name="diis">    1.20    1.21</time>
   <time name="orth">    0.08    0.08</time>
   <time name="total">    1.94    1.95</time>
   <energy>
    <i name="e_fr_energy">   -423.29952105 </i>
    <i name="e_wo_entrp">   -423.29802527 </i>
    <i name="e_0_energy">   -423.29877316 </i>
   </energy>
  </scstep>
  <scstep>
   <time name="diag">    0.51    0.51</time>
   <time name="diis">    1.20    1.20</time>
   <time name="orth">    0.08    0.08</time>
   <time name="total">    1.94    1.95</time>
   <energy>
    <i name="e_fr_energy">   -423.34947606 </i>
    <i name="e_wo_entrp">   -423.34761155 </i>
    <i name="e_0_energy">   -423.34854381 </i>
   </energy>
  </scstep>
  <scstep>
   <time name="diag">    0.50    0.51</time>
   <time name="diis">    1.26    1.31</time>
   <time name="orth">    0.08    0.08</time>
   <time name="total">    2.00    2.05</time>
   <energy>
    <i name="e_fr_energy">   -423.36822365 </i>
    <i name="e_wo_entrp">   -423.36392007 </i>
    <i name="e_0_energy">   -423.36607186 </i>
   </energy>
  </scstep>
  <scstep>
   <time name="diag">    0.51    0.51</time>
   <time name="diis">    1.20    1.20</time>
   <time name="orth">    0.08    0.08</time>
   <time name="total">    1.94    1.94</time>
   <energy>
    <i name="e_fr_energy">   -423.46242012 </i>
    <i name="e_wo_entrp">   -423.45311647 </i>
    <i name="e_0_energy">   -423.45776829 </i>
   </energy>
  </scstep>
  <scstep>
   <time name="diag">    0.50    0.51</time>
   <time name="diis">    1.19    1.20</time>
   <time name="orth">    0.08    0.08</time>
   <time name="total">    1.93    1.94</time>
   <energy>
    <i name="e_fr_energy">   -423.47363573 </i>
    <i name="e_wo_entrp">   -423.46419645 </i>
    <i name="e_0_energy">   -423.46891609 </i>
   </energy>
  </scstep>
  <scstep>
   <time name="diag">    0.51    0.51</time>
   <time name="diis">    1.19    1.19</time>
   <time name="orth">    0.08    0.08</time>
   <time name="total">    1.93    1.94</time>
   <energy>
    <i name="e_fr_energy">   -423.47704266 </i>
    <i name="e_wo_entrp">   -423.46768596 </i>
    <i name="e_0_energy">   -423.47236431 </i>
   </energy>
  </scstep>
  <scstep>
   <time name="diag">    0.51    0.51</time>
   <time name="diis">    1.18    1.19</time>
   <time name="orth">    0.08    0.08</time>
   <time name="total">    1.93    1.93</time>
   <energy>
    <i name="e_fr_energy">   -423.47050734 </i>
    <i name="e_wo_entrp">   -423.46301838 </i>
    <i name="e_0_energy">   -423.46676286 </i>
   </energy>
  </scstep>
  <scstep>
   <time name="diag">    0.51    0.51</time>
   <time name="diis">    1.13    1.13</time>
   <time name="orth">    0.08    0.08</time>
   <time name="total">    1.87    1.87</time>
   <energy>
    <i name="e_fr_energy">   -423.46474976 </i>
    <i name="e_wo_entrp">   -423.45751945 </i>
    <i name="e_0_energy">   -423.46113461 </i>
   </energy>
  </scstep>
  <scstep>
   <time name="diag">    0.51    0.51</time>
   <time name="diis">    1.00    1.01</time>
   <time name="orth">    0.08    0.09</time>
   <time name="total">    1.75    1.76</time>
   <energy>
    <i name="e_fr_energy">   -423.47098339 </i>
    <i name="e_wo_entrp">   -423.46327138 </i>
    <i name="e_0_energy">   -423.46712739 </i>
   </energy>
  </scstep>
  <scstep>
   <time name="diag">    0.51    0.51</time>
   <time name="diis">    0.87    0.87</time>
   <time name="orth">    0.08    0.08</time>
   <time name="total">    1.62    1.62</time>
   <energy>
    <i name="e_fr_energy">   -423.47665334 </i>
    <i name="e_wo_entrp">   -423.46849370 </i>
    <i name="e_0_energy">   -423.47257352 </i>
   </energy>
  </scstep>
  <scstep>
   <time name="diag">    0.51    0.51</time>
   <time name="diis">    0.83    0.83</time>
   <time name="orth">    0.08    0.08</time>
   <time name="total">    1.57    1.58</time>
   <energy>
    <i name="e_fr_energy">   -423.47746130 </i>
    <i name="e_wo_entrp">   -423.46925235 </i>
    <i name="e_0_energy">   -423.47335683 </i>
   </energy>
  </scstep>
  <scstep>
   <time name="diag">    0.51    0.51</time>
   <time name="diis">    0.79    0.79</time>
   <time name="orth">    0.08    0.08</time>
   <time name="total">    1.42    1.42</time>
   <energy>
    <i name="alphaZ">    372.54520999 </i>
    <i name="ewald">  38165.18647767 </i>
    <i name="hartreedc"> -46376.91321334 </i>
    <i name="XCdc">    720.42657244 </i>
    <i name="pawpsdc">  20728.03548666 </i>
    <i name="pawaedc"> -20765.36281561 </i>
    <i name="eentropy">     -0.00823760 </i>
    <i name="bandstr">  -1471.09905457 </i>
    <i name="atom">   8203.71208324 </i>
    <i name="e_fr_energy">   -423.47749111 </i>
    <i name="e_wo_entrp">   -423.46925351 </i>
    <i name="e_0_energy">   -423.47337231 </i>
   </energy>
  </scstep>
  <structure>
   <crystal>
    <varray name="basis" >
     <v>       4.26620007       0.00000000       0.00000000 </v>
     <v>       0.00000000      39.40950012       0.00000000 </v>
     <v>      -1.42206471       0.00000000       3.18109970 </v>
    </varray>
    <i name="volume">    534.83451311 </i>
    <varray name="rec_basis" >
     <v>       0.23440063       0.00000000       0.10478542 </v>
     <v>       0.00000000       0.02537459       0.00000000 </v>
     <v>       0.00000000       0.00000000       0.31435670 </v>
    </varray>
   </crystal>
   <varray name="positions" >
    <v>       0.99972635       0.00000783       0.00000000 </v>
    <v>       0.33324726       0.00000789       0.00000000 </v>
    <v>       0.49972635       0.03122317       0.00000000 </v>
    <v>       0.83324726       0.03122310       0.00000000 </v>
    <v>       0.99989858       0.06246133       0.00000000 </v>
    <v>       0.33301183       0.06245907       0.00000000 </v>
    <v>       0.49966823       0.09369861       0.00000000 </v>
    <v>       0.83324927       0.09370033       0.00000000 </v>
    <v>       0.99972692       0.12492436       0.00000000 </v>
    <v>       0.33326526       0.12492629       0.00000000 </v>
    <v>       0.49993855       0.15617451       0.00000000 </v>
    <v>       0.83312972       0.15617360       0.00000000 </v>
    <v>       0.99968157       0.18741802       0.00000000 </v>
    <v>       0.33345729       0.18742148       0.00000000 </v>
    <v>       0.49976508       0.21863473       0.00000000 </v>
    <v>       0.83340337       0.21863213       0.00000000 </v>
    <v>       0.99982960       0.24990082       0.00000000 </v>
    <v>       0.33333668       0.24990181       0.00000000 </v>
    <v>       0.49924169       0.28117075       0.00000000 </v>
    <v>       0.83390417       0.28116934       0.00000000 </v>
    <v>       0.00216473       0.31214964       0.00000000 </v>
    <v>       0.33091401       0.31214843       0.00000000 </v>
    <v>       0.50011866       0.34329153       0.00000000 </v>
    <v>       0.83287698       0.34329222       0.00000000 </v>
    <v>       0.00011866       0.68793945       0.00000000 </v>
    <v>       0.33287698       0.68793876       0.00000000 </v>
    <v>       0.50216473       0.71908037       0.00000000 </v>
    <v>       0.83091401       0.71908157       0.00000000 </v>
    <v>       0.99924169       0.75005929       0.00000000 </v>
    <v>       0.33390417       0.75006070       0.00000000 </v>
    <v>       0.49982960       0.78133017       0.00000000 </v>
    <v>       0.83333668       0.78132918       0.00000000 </v>
    <v>       0.99976508       0.81259525       0.00000000 </v>
    <v>       0.33340337       0.81259786       0.00000000 </v>
    <v>       0.49968157       0.84381198       0.00000000 </v>
    <v>       0.83345729       0.84380853       0.00000000 </v>
    <v>       0.99993855       0.87505551       0.00000000 </v>
    <v>       0.33312972       0.87505641       0.00000000 </v>
    <v>       0.49972692       0.90630566       0.00000000 </v>
    <v>       0.83326526       0.90630372       0.00000000 </v>
    <v>       0.99966823       0.93753236       0.00000000 </v>
    <v>       0.33324927       0.93753065       0.00000000 </v>
    <v>       0.49989858       0.96876969       0.00000000 </v>
    <v>       0.83301183       0.96877194       0.00000000 </v>
    <v>       0.92883304       0.37417703       0.00000000 </v>
    <v>       0.40408709       0.37417364       0.00000000 </v>
    <v>       0.42883310       0.65705395       0.00000000 </v>
    <v>       0.90408811       0.65705735       0.00000000 </v>
   </varray>
  </structure>
  <varray name="forces" >
   <v>       0.00125437      -0.00054154      -0.00785468 </v>
   <v>      -0.00587091      -0.00241552       0.00748964 </v>
   <v>       0.00125437       0.00054154      -0.00785468 </v>
   <v>      -0.00587091       0.00241552       0.00748964 </v>
   <v>       0.01064541       0.00329654      -0.01640830 </v>
   <v>      -0.00741194       0.00459470       0.01673839 </v>
   <v>       0.00461549       0.00229300      -0.00529300 </v>
   <v>      -0.00042554      -0.00011853       0.00538483 </v>
   <v>       0.00477950       0.00172223      -0.01206595 </v>
   <v>      -0.00341937      -0.00022980       0.01200338 </v>
   <v>       0.00832332       0.00161670      -0.02171089 </v>
   <v>      -0.00963110       0.00324931       0.02125424 </v>
   <v>       0.00227116       0.00063622      -0.00713356 </v>
   <v>      -0.00481385      -0.00253578       0.00729957 </v>
   <v>       0.01499134      -0.00035627      -0.03111452 </v>
   <v>      -0.01645098       0.00374363       0.03091741 </v>
   <v>       0.01771807      -0.00169502      -0.04093540 </v>
   <v>      -0.01856444      -0.00087855       0.04076685 </v>
   <v>       0.00081048      -0.00144884      -0.00685744 </v>
   <v>      -0.00315403       0.00023376       0.00691049 </v>
   <v>       0.09900412       0.00212633      -0.21794067 </v>
   <v>      -0.09899141       0.00167159       0.21781531 </v>
   <v>      -0.08708041       0.00482368       0.19870496 </v>
   <v>       0.08979438       0.00459256      -0.19791134 </v>
   <v>      -0.08708041      -0.00482368       0.19870496 </v>
   <v>       0.08979438      -0.00459256      -0.19791134 </v>
   <v>       0.09900412      -0.00212633      -0.21794067 </v>
   <v>      -0.09899141      -0.00167159       0.21781531 </v>
   <v>       0.00081048       0.00144884      -0.00685744 </v>
   <v>      -0.00315403      -0.00023376       0.00691049 </v>
   <v>       0.01771807       0.00169502      -0.04093540 </v>
   <v>      -0.01856444       0.00087855       0.04076685 </v>
   <v>       0.01499134       0.00035627      -0.03111452 </v>
   <v>      -0.01645098      -0.00374363       0.03091741 </v>
   <v>       0.00227116      -0.00063622      -0.00713356 </v>
   <v>      -0.00481385       0.00253578       0.00729957 </v>
   <v>       0.00832332      -0.00161670      -0.02171089 </v>
   <v>      -0.00963110      -0.00324931       0.02125424 </v>
   <v>       0.00477950      -0.00172223      -0.01206595 </v>
   <v>      -0.00341937       0.00022980       0.01200338 </v>
   <v>       0.00461549      -0.00229300      -0.00529300 </v>
   <v>      -0.00042554       0.00011853       0.00538483 </v>
   <v>       0.01064541      -0.00329654      -0.01640830 </v>
   <v>      -0.00741194      -0.00459470       0.01673839 </v>
   <v>       0.01326872       0.00256299      -0.03683549 </v>
   <v>      -0.01166239       0.00212201       0.03677620 </v>
   <v>       0.01326872      -0.00256299      -0.03683549 </v>
   <v>      -0.01166239      -0.00212201       0.03677620 </v>
  </varray>
  <energy>
   <i name="e_fr_energy">   -429.50403434 </i>
   <i name="e_wo_entrp">   -429.49991554 </i>
   <i name="e_0_energy">     -0.00823760 </i>
  </energy>
  <time name="totalsc">   75.42   75.93</time>
  <eigenvalues>
   <array>
    <dimension dim="1">band</dimension>
    <dimension dim="2">kpoint</dimension>
    <dimension dim="3">spin</dimension>
    <field>eigene</field>
    <field>occ</field>
    <set>
     <set comment="spin 1">
      <set comment="kpoint 1">
       <r>  -20.9744    1.0000 </r>
       <r>  -20.9671    1.0000 </r>
       <r>  -18.3532    1.0000 </r>
       <r>  -18.3460    1.0000 </r>
       <r>  -17.9363    1.0000 </r>
       <r>  -17.8043    1.0000 </r>
       <r>  -17.6146    1.0000 </r>
       <r>  -17.3512    1.0000 </r>
       <r>  -17.0147    1.0000 </r>
       <r>  -16.6048    1.0000 </r>
       <r>  -16.1327    1.0000 </r>
       <r>  -15.5854    1.0000 </r>
       <r>  -14.9801    1.0000 </r>
       <r>  -14.3154    1.0000 </r>
       <r>  -13.5997    1.0000 </r>
       <r>  -12.8440    1.0000 </r>
       <r>  -12.3777    1.0000 </r>
       <r>  -12.2688    1.0000 </r>
       <r>  -12.1162    1.0000 </r>
       <r>  -12.0712    1.0000 </r>
       <r>  -11.9014    1.0000 </r>
       <r>  -11.6244    1.0000 </r>
       <r>  -11.3684    1.0000 </r>
       <r>  -11.3353    1.0000 </r>
       <r>  -11.2835    1.0000 </r>
       <r>  -11.2806    1.0000 </r>
       <r>  -11.1698    1.0000 </r>
       <r>  -11.0296    1.0000 </r>
       <r>  -10.8873    1.0000 </r>
       <r>  -10.8407    1.0000 </r>
       <r>  -10.7655    1.0000 </r>
       <r>  -10.6573    1.0000 </r>
       <r>  -10.5693    1.0000 </r>
       <r>  -10.4198    1.0000 </r>
       <r>   -9.9011    1.0000 </r>
       <r>   -9.3248    1.0000 </r>
       <r>   -8.6955    1.0000 </r>
       <r>   -8.6857    1.0000 </r>
       <r>   -8.6102    1.0000 </r>
       <r>   -8.3110    1.0000 </r>
       <r>   -8.2412    1.0000 </r>
       <r>   -8.0157    1.0000 </r>
       <r>   -7.7781    1.0000 </r>
       <r>   -7.6438    1.0000 </r>
       <r>   -7.2918    1.0000 </r>
       <r>   -7.2428    1.0000 </r>
       <r>   -6.8780    1.0000 </r>
       <r>   -6.6425    1.0000 </r>
       <r>   -6.5311    1.0000 </r>
       <r>   -6.1772    1.0000 </r>
       <r>   -5.9601    1.0000 </r>
       <r>   -5.7557    1.0000 </r>
       <r>   -5.5554    1.0000 </r>
       <r>   -5.2869    1.0000 </r>
       <r>   -5.0021    1.0000 </r>
       <r>   -4.9704    1.0000 </r>
       <r>   -4.7854    1.0000 </r>
       <r>   -4.5150    1.0000 </r>
       <r>   -4.4850    1.0000 </r>
       <r>   -4.4602    1.0000 </r>
       <r>   -4.3578    1.0000 </r>
       <r>   -4.2306    1.0000 </r>
       <r>   -4.1623    1.0000 </r>
       <r>   -4.1508    1.0000 </r>
       <r>   -3.9004    1.0000 </r>
       <r>   -3.6888    1.0000 </r>
       <r>   -3.5864    1.0000 </r>
       <r>   -3.5687    1.0000 </r>
       <r>   -3.1732    1.0000 </r>
       <r>   -3.1387    1.0000 </r>
       <r>   -3.0743    1.0000 </r>
       <r>   -2.7120    1.0000 </r>
       <r>   -2.6190    1.0000 </r>
       <r>   -2.5775    1.0000 </r>
       <r>   -2.2049    1.0000 </r>
       <r>   -2.1335    1.0000 </r>
       <r>   -2.0633    1.0000 </r>
       <r>   -1.9688    1.0000 </r>
       <r>   -1.9609    1.0000 </r>
       <r>   -1.6613    1.0000 </r>
       <r>   -1.6421    1.0000 </r>
       <r>   -1.6273    1.0000 </r>
       <r>   -1.3285    1.0000 </r>
       <r>   -1.3282    1.0000 </r>
       <r>   -1.0423    1.0000 </r>
       <r>   -1.0285    1.0000 </r>
       <r>   -0.8973    1.0000 </r>
       <r>   -0.8902    1.0000 </r>
       <r>   -0.8575    1.0000 </r>
       <r>   -0.6086    1.0000 </r>
       <r>   -0.4126    1.0000 </r>
       <r>   -0.2710    1.0000 </r>
       <r>    0.1491    1.0000 </r>
       <r>    0.2296    1.0000 </r>
       <r>    0.6497    1.0000 </r>
       <r>    0.8630    1.0000 </r>
       <r>    1.2135    1.0000 </r>
       <r>    1.4594    1.0000 </r>
       <r>    1.8632    0.1582 </r>
       <r>    1.9864    0.0000 </r>
       <r>    2.1055    0.0000 </r>
       <r>    2.1123    0.0000 </r>
       <r>    2.4067    0.0000 </r>
       <r>    2.5665    0.0000 </r>
       <r>    2.7102    0.0000 </r>
       <r>    2.9002    0.0000 </r>
       <r>    2.9810    0.0000 </r>
       <r>    3.0062    0.0000 </r>
       <r>    3.0148    0.0000 </r>
       <r>    3.3178    0.0000 </r>
       <r>    3.3250    0.0000 </r>
       <r>    3.3311    0.0000 </r>
       <r>    4.1509    0.0000 </r>
       <r>    5.0213    0.0000 </r>
       <r>    5.9338    0.0000 </r>
       <r>    6.5801    0.0000 </r>
       <r>    6.6919    0.0000 </r>
       <r>    6.8411    0.0000 </r>
       <r>    6.8782    0.0000 </r>
       <r>    7.0490    0.0000 </r>
       <r>    7.3131    0.0000 </r>
       <r>    7.6269    0.0000 </r>
       <r>    7.8447    0.0000 </r>
       <r>    7.9730    0.0000 </r>
       <r>    8.3622    0.0000 </r>
       <r>    8.7260    0.0000 </r>
       <r>    8.8355    0.0000 </r>
       <r>    9.1110    0.0000 </r>
       <r>    9.2939    0.0000 </r>
       <r>    9.3383    0.0000 </r>
       <r>    9.6907    0.0000 </r>
       <r>    9.7663    0.0000 </r>
       <r>    9.9445    0.0000 </r>
       <r>   10.2427    0.0000 </r>
       <r>   10.2573    0.0000 </r>
       <r>   10.2947    0.0000 </r>
       <r>   10.3626    0.0000 </r>
       <r>   10.4425    0.0000 </r>
       <r>   10.4971    0.0000 </r>
       <r>   10.5472    0.0000 </r>
       <r>   10.6165    0.0000 </r>
       <r>   10.8972    0.0000 </r>
       <r>   11.0130    0.0000 </r>
       <r>   11.1097    0.0000 </r>
       <r>   11.2448    0.0000 </r>
       <r>   11.2900    0.0000 </r>
       <r>   11.3294    0.0000 </r>
       <r>   11.4895    0.0000 </r>
       <r>   11.5822    0.0000 </r>
       <r>   11.7471    0.0000 </r>
       <r>   12.1140    0.0000 </r>
       <r>   12.3271    0.0000 </r>
      </set>
      <set comment="kpoint 2">
       <r>  -20.8555    1.0000 </r>
       <r>  -20.8481    1.0000 </r>
       <r>  -18.5754    1.0000 </r>
       <r>  -18.5682    1.0000 </r>
       <r>  -17.7575    1.0000 </r>
       <r>  -17.6260    1.0000 </r>
       <r>  -17.4371    1.0000 </r>
       <r>  -17.1747    1.0000 </r>
       <r>  -16.8393    1.0000 </r>
       <r>  -16.4308    1.0000 </r>
       <r>  -15.9604    1.0000 </r>
       <r>  -15.4150    1.0000 </r>
       <r>  -14.8122    1.0000 </r>
       <r>  -14.1509    1.0000 </r>
       <r>  -13.6978    1.0000 </r>
       <r>  -13.5817    1.0000 </r>
       <r>  -13.4414    1.0000 </r>
       <r>  -13.4188    1.0000 </r>
       <r>  -13.1920    1.0000 </r>
       <r>  -12.9025    1.0000 </r>
       <r>  -12.7022    1.0000 </r>
       <r>  -12.5531    1.0000 </r>
       <r>  -12.1653    1.0000 </r>
       <r>  -12.0220    1.0000 </r>
       <r>  -11.6247    1.0000 </r>
       <r>  -11.4327    1.0000 </r>
       <r>  -10.5749    1.0000 </r>
       <r>  -10.3965    1.0000 </r>
       <r>   -9.9992    1.0000 </r>
       <r>   -9.8790    1.0000 </r>
       <r>   -9.8137    1.0000 </r>
       <r>   -9.7579    1.0000 </r>
       <r>   -9.6257    1.0000 </r>
       <r>   -9.5868    1.0000 </r>
       <r>   -9.4768    1.0000 </r>
       <r>   -9.4087    1.0000 </r>
       <r>   -9.3613    1.0000 </r>
       <r>   -8.8520    1.0000 </r>
       <r>   -8.1856    1.0000 </r>
       <r>   -7.8785    1.0000 </r>
       <r>   -7.8167    1.0000 </r>
       <r>   -7.5806    1.0000 </r>
       <r>   -7.4600    1.0000 </r>
       <r>   -7.3663    1.0000 </r>
       <r>   -7.1017    1.0000 </r>
       <r>   -6.9292    1.0000 </r>
       <r>   -6.6319    1.0000 </r>
       <r>   -6.4267    1.0000 </r>
       <r>   -6.4211    1.0000 </r>
       <r>   -5.8974    1.0000 </r>
       <r>   -5.8805    1.0000 </r>
       <r>   -5.6612    1.0000 </r>
       <r>   -5.3576    1.0000 </r>
       <r>   -5.2279    1.0000 </r>
       <r>   -4.9415    1.0000 </r>
       <r>   -4.7962    1.0000 </r>
       <r>   -4.7281    1.0000 </r>
       <r>   -4.4990    1.0000 </r>
       <r>   -4.4031    1.0000 </r>
       <r>   -4.3845    1.0000 </r>
       <r>   -4.2772    1.0000 </r>
       <r>   -4.2208    1.0000 </r>
       <r>   -4.1545    1.0000 </r>
       <r>   -4.0820    1.0000 </r>
       <r>   -3.8542    1.0000 </r>
       <r>   -3.8193    1.0000 </r>
       <r>   -3.5502    1.0000 </r>
       <r>   -3.4913    1.0000 </r>
       <r>   -3.4401    1.0000 </r>
       <r>   -3.1051    1.0000 </r>
       <r>   -3.0566    1.0000 </r>
       <r>   -2.9901    1.0000 </r>
       <r>   -2.6689    1.0000 </r>
       <r>   -2.6522    1.0000 </r>
       <r>   -2.4851    1.0000 </r>
       <r>   -2.3017    1.0000 </r>
       <r>   -2.2578    1.0000 </r>
       <r>   -2.1875    1.0000 </r>
       <r>   -2.0548    1.0000 </r>
       <r>   -2.0410    1.0000 </r>
       <r>   -1.9872    1.0000 </r>
       <r>   -1.8104    1.0000 </r>
       <r>   -1.6533    1.0000 </r>
       <r>   -1.6485    1.0000 </r>
       <r>   -1.5626    1.0000 </r>
       <r>   -1.4786    1.0000 </r>
       <r>   -1.2365    1.0000 </r>
       <r>   -1.0791    1.0000 </r>
       <r>   -1.0718    1.0000 </r>
       <r>   -0.9901    1.0000 </r>
       <r>   -0.9176    1.0000 </r>
       <r>   -0.5399    1.0000 </r>
       <r>   -0.3999    1.0000 </r>
       <r>   -0.1130    1.0000 </r>
       <r>    0.1608    1.0000 </r>
       <r>    0.3123    1.0000 </r>
       <r>    0.5950    1.0000 </r>
       <r>    0.6476    1.0000 </r>
       <r>    1.8685    0.1246 </r>
       <r>    1.8754    0.0889 </r>
       <r>    2.0201    0.0000 </r>
       <r>    2.0307    0.0000 </r>
       <r>    3.1654    0.0000 </r>
       <r>    3.2406    0.0000 </r>
       <r>    3.5209    0.0000 </r>
       <r>    3.6192    0.0000 </r>
       <r>    3.8676    0.0000 </r>
       <r>    3.9214    0.0000 </r>
       <r>    4.0027    0.0000 </r>
       <r>    4.0172    0.0000 </r>
       <r>    4.0344    0.0000 </r>
       <r>    4.1911    0.0000 </r>
       <r>    4.3568    0.0000 </r>
       <r>    4.9276    0.0000 </r>
       <r>    5.7397    0.0000 </r>
       <r>    6.6262    0.0000 </r>
       <r>    6.9551    0.0000 </r>
       <r>    7.0628    0.0000 </r>
       <r>    7.2047    0.0000 </r>
       <r>    7.4014    0.0000 </r>
       <r>    7.5489    0.0000 </r>
       <r>    7.6544    0.0000 </r>
       <r>    7.9565    0.0000 </r>
       <r>    8.2673    0.0000 </r>
       <r>    8.5084    0.0000 </r>
       <r>    8.6723    0.0000 </r>
       <r>    9.0702    0.0000 </r>
       <r>    9.2605    0.0000 </r>
       <r>    9.4147    0.0000 </r>
       <r>    9.5776    0.0000 </r>
       <r>    9.5848    0.0000 </r>
       <r>    9.8998    0.0000 </r>
       <r>   10.1561    0.0000 </r>
       <r>   10.1599    0.0000 </r>
       <r>   10.2883    0.0000 </r>
       <r>   10.3094    0.0000 </r>
       <r>   10.3600    0.0000 </r>
       <r>   10.3668    0.0000 </r>
       <r>   10.4573    0.0000 </r>
       <r>   10.5113    0.0000 </r>
       <r>   10.5501    0.0000 </r>
       <r>   10.6586    0.0000 </r>
       <r>   10.7002    0.0000 </r>
       <r>   10.8733    0.0000 </r>
       <r>   11.0233    0.0000 </r>
       <r>   11.1124    0.0000 </r>
       <r>   11.1334    0.0000 </r>
       <r>   11.3681    0.0000 </r>
       <r>   11.4282    0.0000 </r>
       <r>   11.5694    0.0000 </r>
       <r>   11.6921    0.0000 </r>
       <r>   11.8338    0.0000 </r>
      </set>
      <set comment="kpoint 3">
       <r>  -20.5307    1.0000 </r>
       <r>  -20.5234    1.0000 </r>
       <r>  -19.0929    1.0000 </r>
       <r>  -19.0856    1.0000 </r>
       <r>  -17.2255    1.0000 </r>
       <r>  -17.0955    1.0000 </r>
       <r>  -16.9089    1.0000 </r>
       <r>  -16.6496    1.0000 </r>
       <r>  -16.3182    1.0000 </r>
       <r>  -15.9142    1.0000 </r>
       <r>  -15.4492    1.0000 </r>
       <r>  -15.1628    1.0000 </r>
       <r>  -15.0395    1.0000 </r>
       <r>  -14.9107    1.0000 </r>
       <r>  -14.8644    1.0000 </r>
       <r>  -14.6215    1.0000 </r>
       <r>  -14.3165    1.0000 </r>
       <r>  -14.3100    1.0000 </r>
       <r>  -13.9309    1.0000 </r>
       <r>  -13.6720    1.0000 </r>
       <r>  -13.4955    1.0000 </r>
       <r>  -13.0470    1.0000 </r>
       <r>  -12.9547    1.0000 </r>
       <r>  -12.5821    1.0000 </r>
       <r>  -12.1078    1.0000 </r>
       <r>  -11.9274    1.0000 </r>
       <r>  -11.0098    1.0000 </r>
       <r>  -10.8773    1.0000 </r>
       <r>  -10.2979    1.0000 </r>
       <r>  -10.1746    1.0000 </r>
       <r>   -9.4993    1.0000 </r>
       <r>   -9.4155    1.0000 </r>
       <r>   -8.7233    1.0000 </r>
       <r>   -8.6421    1.0000 </r>
       <r>   -8.0857    1.0000 </r>
       <r>   -8.0123    1.0000 </r>
       <r>   -7.7362    1.0000 </r>
       <r>   -7.7214    1.0000 </r>
       <r>   -7.6589    1.0000 </r>
       <r>   -7.6500    1.0000 </r>
       <r>   -7.5366    1.0000 </r>
       <r>   -6.8381    1.0000 </r>
       <r>   -6.4700    1.0000 </r>
       <r>   -6.3491    1.0000 </r>
       <r>   -6.2706    1.0000 </r>
       <r>   -6.1752    1.0000 </r>
       <r>   -5.9782    1.0000 </r>
       <r>   -5.8474    1.0000 </r>
       <r>   -5.8268    1.0000 </r>
       <r>   -5.5064    1.0000 </r>
       <r>   -5.3687    1.0000 </r>
       <r>   -5.2757    1.0000 </r>
       <r>   -5.0582    1.0000 </r>
       <r>   -4.9700    1.0000 </r>
       <r>   -4.7349    1.0000 </r>
       <r>   -4.6645    1.0000 </r>
       <r>   -4.5255    1.0000 </r>
       <r>   -4.3729    1.0000 </r>
       <r>   -4.3312    1.0000 </r>
       <r>   -4.1718    1.0000 </r>
       <r>   -4.1546    1.0000 </r>
       <r>   -4.1232    1.0000 </r>
       <r>   -4.0368    1.0000 </r>
       <r>   -4.0330    1.0000 </r>
       <r>   -4.0125    1.0000 </r>
       <r>   -3.8249    1.0000 </r>
       <r>   -3.8218    1.0000 </r>
       <r>   -3.7020    1.0000 </r>
       <r>   -3.6424    1.0000 </r>
       <r>   -3.5746    1.0000 </r>
       <r>   -3.5163    1.0000 </r>
       <r>   -3.4821    1.0000 </r>
       <r>   -3.3344    1.0000 </r>
       <r>   -3.2714    1.0000 </r>
       <r>   -3.1993    1.0000 </r>
       <r>   -3.0202    1.0000 </r>
       <r>   -2.9672    1.0000 </r>
       <r>   -2.7993    1.0000 </r>
       <r>   -2.7378    1.0000 </r>
       <r>   -2.6624    1.0000 </r>
       <r>   -2.6526    1.0000 </r>
       <r>   -2.4680    1.0000 </r>
       <r>   -2.4493    1.0000 </r>
       <r>   -2.3362    1.0000 </r>
       <r>   -2.1827    1.0000 </r>
       <r>   -1.9237    1.0000 </r>
       <r>   -1.8212    1.0000 </r>
       <r>   -1.5273    1.0000 </r>
       <r>   -1.3358    1.0000 </r>
       <r>   -1.1493    1.0000 </r>
       <r>   -1.1402    1.0000 </r>
       <r>   -1.0991    1.0000 </r>
       <r>   -0.8219    1.0000 </r>
       <r>   -0.6775    1.0000 </r>
       <r>   -0.3443    1.0000 </r>
       <r>   -0.2695    1.0000 </r>
       <r>   -0.0063    1.0000 </r>
       <r>    0.0147    1.0000 </r>
       <r>    1.3793    1.0000 </r>
       <r>    1.3864    1.0000 </r>
       <r>    1.9279    0.0023 </r>
       <r>    1.9348    0.0012 </r>
       <r>    3.8528    0.0000 </r>
       <r>    3.8776    0.0000 </r>
       <r>    4.2788    0.0000 </r>
       <r>    4.3836    0.0000 </r>
       <r>    4.7881    0.0000 </r>
       <r>    4.9954    0.0000 </r>
       <r>    5.3251    0.0000 </r>
       <r>    5.5076    0.0000 </r>
       <r>    5.8395    0.0000 </r>
       <r>    5.8986    0.0000 </r>
       <r>    6.0790    0.0000 </r>
       <r>    6.1038    0.0000 </r>
       <r>    6.1796    0.0000 </r>
       <r>    6.2534    0.0000 </r>
       <r>    6.8534    0.0000 </r>
       <r>    7.6505    0.0000 </r>
       <r>    8.0310    0.0000 </r>
       <r>    8.1180    0.0000 </r>
       <r>    8.2327    0.0000 </r>
       <r>    8.3696    0.0000 </r>
       <r>    8.4536    0.0000 </r>
       <r>    8.6041    0.0000 </r>
       <r>    8.9213    0.0000 </r>
       <r>    9.1242    0.0000 </r>
       <r>    9.3062    0.0000 </r>
       <r>    9.4611    0.0000 </r>
       <r>    9.6711    0.0000 </r>
       <r>    9.7022    0.0000 </r>
       <r>    9.7928    0.0000 </r>
       <r>    9.8272    0.0000 </r>
       <r>    9.9192    0.0000 </r>
       <r>   10.0153    0.0000 </r>
       <r>   10.0631    0.0000 </r>
       <r>   10.1497    0.0000 </r>
       <r>   10.2034    0.0000 </r>
       <r>   10.2640    0.0000 </r>
       <r>   10.2795    0.0000 </r>
       <r>   10.3243    0.0000 </r>
       <r>   10.3848    0.0000 </r>
       <r>   10.5875    0.0000 </r>
       <r>   10.5948    0.0000 </r>
       <r>   10.6401    0.0000 </r>
       <r>   10.7148    0.0000 </r>
       <r>   10.7666    0.0000 </r>
       <r>   10.7971    0.0000 </r>
       <r>   10.8302    0.0000 </r>
       <r>   10.9534    0.0000 </r>
       <r>   11.1133    0.0000 </r>
       <r>   11.4198    0.0000 </r>
       <r>   11.5543    0.0000 </r>
      </set>
      <set comment="kpoint 4">
       <r>  -20.2424    1.0000 </r>
       <r>  -20.2351    1.0000 </r>
       <r>  -19.4718    1.0000 </r>
       <r>  -19.4645    1.0000 </r>
       <r>  -16.3531    1.0000 </r>
       <r>  -16.3530    1.0000 </r>
       <r>  -16.2258    1.0000 </r>
       <r>  -16.2257    1.0000 </r>
       <r>  -16.0437    1.0000 </r>
       <r>  -16.0437    1.0000 </r>
       <r>  -15.7900    1.0000 </r>
       <r>  -15.7899    1.0000 </r>
       <r>  -15.4657    1.0000 </r>
       <r>  -15.4656    1.0000 </r>
       <r>  -15.0707    1.0000 </r>
       <r>  -15.0707    1.0000 </r>
       <r>  -14.6166    1.0000 </r>
       <r>  -14.6165    1.0000 </r>
       <r>  -14.0926    1.0000 </r>
       <r>  -14.0926    1.0000 </r>
       <r>  -13.5229    1.0000 </r>
       <r>  -13.5222    1.0000 </r>
       <r>  -12.9382    1.0000 </r>
       <r>  -12.9378    1.0000 </r>
       <r>  -12.1800    1.0000 </r>
       <r>  -12.1762    1.0000 </r>
       <r>  -11.1193    1.0000 </r>
       <r>  -11.1190    1.0000 </r>
       <r>  -10.3836    1.0000 </r>
       <r>  -10.3829    1.0000 </r>
       <r>   -9.5688    1.0000 </r>
       <r>   -9.5688    1.0000 </r>
       <r>   -8.7272    1.0000 </r>
       <r>   -8.7271    1.0000 </r>
       <r>   -7.8935    1.0000 </r>
       <r>   -7.8931    1.0000 </r>
       <r>   -7.1323    1.0000 </r>
       <r>   -7.1313    1.0000 </r>
       <r>   -6.4975    1.0000 </r>
       <r>   -6.4960    1.0000 </r>
       <r>   -5.9921    1.0000 </r>
       <r>   -5.9917    1.0000 </r>
       <r>   -5.6928    1.0000 </r>
       <r>   -5.6922    1.0000 </r>
       <r>   -5.5771    1.0000 </r>
       <r>   -5.5751    1.0000 </r>
       <r>   -5.5472    1.0000 </r>
       <r>   -5.5460    1.0000 </r>
       <r>   -4.9802    1.0000 </r>
       <r>   -4.9745    1.0000 </r>
       <r>   -4.8044    1.0000 </r>
       <r>   -4.7997    1.0000 </r>
       <r>   -4.7755    1.0000 </r>
       <r>   -4.7754    1.0000 </r>
       <r>   -4.7369    1.0000 </r>
       <r>   -4.7357    1.0000 </r>
       <r>   -4.6658    1.0000 </r>
       <r>   -4.6645    1.0000 </r>
       <r>   -4.6438    1.0000 </r>
       <r>   -4.6432    1.0000 </r>
       <r>   -4.5976    1.0000 </r>
       <r>   -4.5974    1.0000 </r>
       <r>   -4.5735    1.0000 </r>
       <r>   -4.5734    1.0000 </r>
       <r>   -4.3587    1.0000 </r>
       <r>   -4.3587    1.0000 </r>
       <r>   -3.9761    1.0000 </r>
       <r>   -3.9749    1.0000 </r>
       <r>   -3.9138    1.0000 </r>
       <r>   -3.9086    1.0000 </r>
       <r>   -3.6210    1.0000 </r>
       <r>   -3.6182    1.0000 </r>
       <r>   -3.5097    1.0000 </r>
       <r>   -3.5091    1.0000 </r>
       <r>   -3.3960    1.0000 </r>
       <r>   -3.3932    1.0000 </r>
       <r>   -3.3601    1.0000 </r>
       <r>   -3.3590    1.0000 </r>
       <r>   -3.2143    1.0000 </r>
       <r>   -3.2137    1.0000 </r>
       <r>   -2.9611    1.0000 </r>
       <r>   -2.9604    1.0000 </r>
       <r>   -2.6439    1.0000 </r>
       <r>   -2.6430    1.0000 </r>
       <r>   -2.2710    1.0000 </r>
       <r>   -2.2705    1.0000 </r>
       <r>   -1.8438    1.0000 </r>
       <r>   -1.8433    1.0000 </r>
       <r>   -1.3912    1.0000 </r>
       <r>   -1.3906    1.0000 </r>
       <r>   -1.0880    1.0000 </r>
       <r>   -1.0812    1.0000 </r>
       <r>   -0.9231    1.0000 </r>
       <r>   -0.9229    1.0000 </r>
       <r>   -0.4985    1.0000 </r>
       <r>   -0.4965    1.0000 </r>
       <r>   -0.2037    1.0000 </r>
       <r>   -0.2024    1.0000 </r>
       <r>    1.1180    1.0000 </r>
       <r>    1.1252    1.0000 </r>
       <r>    1.8908    0.0372 </r>
       <r>    1.8978    0.0239 </r>
       <r>    4.0377    0.0000 </r>
       <r>    4.0379    0.0000 </r>
       <r>    4.5284    0.0000 </r>
       <r>    4.5294    0.0000 </r>
       <r>    5.1591    0.0000 </r>
       <r>    5.1593    0.0000 </r>
       <r>    5.8472    0.0000 </r>
       <r>    5.8475    0.0000 </r>
       <r>    6.5259    0.0000 </r>
       <r>    6.5262    0.0000 </r>
       <r>    7.1507    0.0000 </r>
       <r>    7.1508    0.0000 </r>
       <r>    7.6726    0.0000 </r>
       <r>    7.6728    0.0000 </r>
       <r>    8.0724    0.0000 </r>
       <r>    8.0726    0.0000 </r>
       <r>    8.3408    0.0000 </r>
       <r>    8.3412    0.0000 </r>
       <r>    8.5041    0.0000 </r>
       <r>    8.5046    0.0000 </r>
       <r>    8.5618    0.0000 </r>
       <r>    8.5627    0.0000 </r>
       <r>    9.1822    0.0000 </r>
       <r>    9.1885    0.0000 </r>
       <r>    9.5486    0.0000 </r>
       <r>    9.5491    0.0000 </r>
       <r>    9.5835    0.0000 </r>
       <r>    9.5836    0.0000 </r>
       <r>    9.7418    0.0000 </r>
       <r>    9.7436    0.0000 </r>
       <r>    9.8400    0.0000 </r>
       <r>    9.8412    0.0000 </r>
       <r>   10.0007    0.0000 </r>
       <r>   10.0025    0.0000 </r>
       <r>   10.0810    0.0000 </r>
       <r>   10.0833    0.0000 </r>
       <r>   10.1376    0.0000 </r>
       <r>   10.1420    0.0000 </r>
       <r>   10.2871    0.0000 </r>
       <r>   10.2986    0.0000 </r>
       <r>   10.3937    0.0000 </r>
       <r>   10.3977    0.0000 </r>
       <r>   10.5288    0.0000 </r>
       <r>   10.5475    0.0000 </r>
       <r>   10.5966    0.0000 </r>
       <r>   10.6368    0.0000 </r>
       <r>   10.9121    0.0000 </r>
       <r>   10.9813    0.0000 </r>
       <r>   11.2398    0.0000 </r>
       <r>   11.3952    0.0000 </r>
      </set>
      <set comment="kpoint 5">
       <r>  -20.8200    1.0000 </r>
       <r>  -20.8127    1.0000 </r>
       <r>  -18.4010    1.0000 </r>
       <r>  -18.3938    1.0000 </r>
       <r>  -17.4904    1.0000 </r>
       <r>  -17.3621    1.0000 </r>
       <r>  -17.1784    1.0000 </r>
       <r>  -16.9228    1.0000 </r>
       <r>  -16.5957    1.0000 </r>
       <r>  -16.1967    1.0000 </r>
       <r>  -15.7370    1.0000 </r>
       <r>  -15.2032    1.0000 </r>
       <r>  -14.6132    1.0000 </r>
       <r>  -13.9655    1.0000 </r>
       <r>  -13.2692    1.0000 </r>
       <r>  -12.5498    1.0000 </r>
       <r>  -12.5368    1.0000 </r>
       <r>  -12.4392    1.0000 </r>
       <r>  -12.2839    1.0000 </r>
       <r>  -12.0654    1.0000 </r>
       <r>  -11.7961    1.0000 </r>
       <r>  -11.7838    1.0000 </r>
       <r>  -11.4930    1.0000 </r>
       <r>  -11.4376    1.0000 </r>
       <r>  -11.4042    1.0000 </r>
       <r>  -11.2984    1.0000 </r>
       <r>  -11.1377    1.0000 </r>
       <r>  -11.1094    1.0000 </r>
       <r>  -11.0355    1.0000 </r>
       <r>  -10.9338    1.0000 </r>
       <r>  -10.7292    1.0000 </r>
       <r>  -10.6502    1.0000 </r>
       <r>  -10.5770    1.0000 </r>
       <r>  -10.5615    1.0000 </r>
       <r>  -10.0358    1.0000 </r>
       <r>   -9.4520    1.0000 </r>
       <r>   -8.8148    1.0000 </r>
       <r>   -8.6568    1.0000 </r>
       <r>   -8.6476    1.0000 </r>
       <r>   -8.3089    1.0000 </r>
       <r>   -8.1993    1.0000 </r>
       <r>   -8.1268    1.0000 </r>
       <r>   -7.8515    1.0000 </r>
       <r>   -7.5052    1.0000 </r>
       <r>   -7.3945    1.0000 </r>
       <r>   -7.3030    1.0000 </r>
       <r>   -6.9873    1.0000 </r>
       <r>   -6.8766    1.0000 </r>
       <r>   -6.8088    1.0000 </r>
       <r>   -6.7257    1.0000 </r>
       <r>   -6.6285    1.0000 </r>
       <r>   -6.6251    1.0000 </r>
       <r>   -6.5057    1.0000 </r>
       <r>   -6.2120    1.0000 </r>
       <r>   -6.1778    1.0000 </r>
       <r>   -5.8817    1.0000 </r>
       <r>   -5.8475    1.0000 </r>
       <r>   -5.8393    1.0000 </r>
       <r>   -5.5567    1.0000 </r>
       <r>   -5.4115    1.0000 </r>
       <r>   -5.2101    1.0000 </r>
       <r>   -5.0439    1.0000 </r>
       <r>   -4.9747    1.0000 </r>
       <r>   -4.8994    1.0000 </r>
       <r>   -4.7176    1.0000 </r>
       <r>   -4.4753    1.0000 </r>
       <r>   -4.3356    1.0000 </r>
       <r>   -4.2952    1.0000 </r>
       <r>   -4.1187    1.0000 </r>
       <r>   -3.7072    1.0000 </r>
       <r>   -3.6980    1.0000 </r>
       <r>   -3.6431    1.0000 </r>
       <r>   -3.1695    1.0000 </r>
       <r>   -3.1241    1.0000 </r>
       <r>   -3.0251    1.0000 </r>
       <r>   -2.6652    1.0000 </r>
       <r>   -2.6130    1.0000 </r>
       <r>   -2.2919    1.0000 </r>
       <r>   -2.1763    1.0000 </r>
       <r>   -2.0956    1.0000 </r>
       <r>   -1.6986    1.0000 </r>
       <r>   -1.6631    1.0000 </r>
       <r>   -1.5177    1.0000 </r>
       <r>   -1.4655    1.0000 </r>
       <r>   -1.4575    1.0000 </r>
       <r>   -1.3618    1.0000 </r>
       <r>   -1.3586    1.0000 </r>
       <r>   -0.9184    1.0000 </r>
       <r>   -0.9109    1.0000 </r>
       <r>   -0.7156    1.0000 </r>
       <r>   -0.0667    1.0000 </r>
       <r>    0.0929    1.0000 </r>
       <r>    0.0945    1.0000 </r>
       <r>    0.3296    1.0000 </r>
       <r>    0.6533    1.0000 </r>
       <r>    0.8850    1.0000 </r>
       <r>    1.0592    1.0000 </r>
       <r>    1.5447    1.0000 </r>
       <r>    1.6189    1.0000 </r>
       <r>    2.0862    0.0000 </r>
       <r>    2.0923    0.0000 </r>
       <r>    2.0930    0.0000 </r>
       <r>    2.2735    0.0000 </r>
       <r>    2.7243    0.0000 </r>
       <r>    2.8237    0.0000 </r>
       <r>    3.2445    0.0000 </r>
       <r>    3.4061    0.0000 </r>
       <r>    3.5381    0.0000 </r>
       <r>    3.7240    0.0000 </r>
       <r>    3.8442    0.0000 </r>
       <r>    3.8676    0.0000 </r>
       <r>    4.1467    0.0000 </r>
       <r>    4.9393    0.0000 </r>
       <r>    5.7788    0.0000 </r>
       <r>    6.6562    0.0000 </r>
       <r>    7.5608    0.0000 </r>
       <r>    8.4842    0.0000 </r>
       <r>    9.4012    0.0000 </r>
       <r>    9.5581    0.0000 </r>
       <r>    9.7843    0.0000 </r>
       <r>   10.1466    0.0000 </r>
       <r>   10.2066    0.0000 </r>
       <r>   10.2153    0.0000 </r>
       <r>   10.2409    0.0000 </r>
       <r>   10.2811    0.0000 </r>
       <r>   10.4129    0.0000 </r>
       <r>   10.5071    0.0000 </r>
       <r>   10.5203    0.0000 </r>
       <r>   10.9342    0.0000 </r>
       <r>   10.9472    0.0000 </r>
       <r>   10.9916    0.0000 </r>
       <r>   11.2721    0.0000 </r>
       <r>   11.3651    0.0000 </r>
       <r>   11.5562    0.0000 </r>
       <r>   11.5634    0.0000 </r>
       <r>   11.9922    0.0000 </r>
       <r>   12.1092    0.0000 </r>
       <r>   12.1226    0.0000 </r>
       <r>   12.1528    0.0000 </r>
       <r>   12.1743    0.0000 </r>
       <r>   12.2356    0.0000 </r>
       <r>   12.2916    0.0000 </r>
       <r>   12.3127    0.0000 </r>
       <r>   12.4978    0.0000 </r>
       <r>   12.5216    0.0000 </r>
       <r>   12.6594    0.0000 </r>
       <r>   12.7308    0.0000 </r>
       <r>   12.7668    0.0000 </r>
       <r>   12.8143    0.0000 </r>
       <r>   12.8314    0.0000 </r>
       <r>   13.1552    0.0000 </r>
       <r>   13.3266    0.0000 </r>
[...]
       <r>   -21.5607     0.0000     0.0000 </r>
       <r>   -21.4342     0.0000     0.0000 </r>
       <r>   -21.3078     0.0000     0.0000 </r>
       <r>   -21.1813     0.0000     0.0000 </r>
       <r>   -21.0549     0.0003     0.0000 </r>
       <r>   -20.9285     0.7044     0.0891 </r>
       <r>   -20.8020     2.5412     0.4104 </r>
       <r>   -20.6756     3.1815     0.8127 </r>
       <r>   -20.5491     1.5910     1.0139 </r>
       <r>   -20.4227     2.7699     1.3641 </r>
       <r>   -20.2962     2.3763     1.6646 </r>
       <r>   -20.1698     1.2664     1.8247 </r>
       <r>   -20.0433     1.3778     1.9990 </r>
       <r>   -19.9169     0.0083     2.0000 </r>
       <r>   -19.7905     0.0000     2.0000 </r>
       <r>   -19.6640     0.0000     2.0000 </r>
       <r>   -19.5376     0.0008     2.0001 </r>
       <r>   -19.4111     0.9996     2.1265 </r>
       <r>   -19.2847     1.6263     2.3321 </r>
       <r>   -19.1582     0.0119     2.3336 </r>
       <r>   -19.0318     3.0482     2.7191 </r>
       <r>   -18.9053     2.2213     2.9999 </r>
       <r>   -18.7789     0.0005     3.0000 </r>
       <r>   -18.6525     0.0108     3.0014 </r>
       <r>   -18.5260     3.4586     3.4387 </r>
       <r>   -18.3996     1.9233     3.6819 </r>
       <r>   -18.2731     2.2388     3.9650 </r>
       <r>   -18.1467     0.2771     4.0000 </r>
       <r>   -18.0202     0.0058     4.0007 </r>
       <r>   -17.8938     0.5817     4.0743 </r>
       <r>   -17.7673     1.1493     4.2196 </r>
       <r>   -17.6409     1.4914     4.4082 </r>
       <r>   -17.5145     1.5648     4.6061 </r>
       <r>   -17.3880     2.0664     4.8673 </r>
       <r>   -17.2616     2.6871     5.2071 </r>
       <r>   -17.1351     4.1936     5.7374 </r>
       <r>   -17.0087     2.7564     6.0859 </r>
       <r>   -16.8822     3.2548     6.4975 </r>
       <r>   -16.7558     3.7886     6.9765 </r>
       <r>   -16.6293     2.2050     7.2553 </r>
       <r>   -16.5029     2.6879     7.5952 </r>
       <r>   -16.3764     2.9788     7.9718 </r>
       <r>   -16.2500     3.8353     8.4568 </r>
       <r>   -16.1236     3.0925     8.8478 </r>
       <r>   -15.9971     5.0235     9.4830 </r>
       <r>   -15.8707     3.5873     9.9366 </r>
       <r>   -15.7442     2.6123    10.2669 </r>
       <r>   -15.6178     1.8518    10.5011 </r>
       <r>   -15.4913     3.7430    10.9744 </r>
       <r>   -15.3649     3.3789    11.4016 </r>
       <r>   -15.2384     1.3610    11.5737 </r>
       <r>   -15.1120     3.8603    12.0618 </r>
       <r>   -14.9856     5.4744    12.7540 </r>
       <r>   -14.8591     4.4083    13.3114 </r>
       <r>   -14.7327     3.4202    13.7439 </r>
       <r>   -14.6062     3.1658    14.1442 </r>
       <r>   -14.4798     3.4340    14.5784 </r>
       <r>   -14.3533     2.4154    14.8838 </r>
       <r>   -14.2269     3.8436    15.3698 </r>
       <r>   -14.1004     2.1829    15.6458 </r>
       <r>   -13.9740     2.5759    15.9715 </r>
       <r>   -13.8476     4.1162    16.4920 </r>
       <r>   -13.7211     3.0078    16.8723 </r>
       <r>   -13.5947     4.3827    17.4265 </r>
       <r>   -13.4682     5.1350    18.0758 </r>
       <r>   -13.3418     6.0477    18.8405 </r>
       <r>   -13.2153     2.6917    19.1808 </r>
       <r>   -13.0889     2.5317    19.5009 </r>
       <r>   -12.9624     3.3185    19.9206 </r>
       <r>   -12.8360     4.9559    20.5472 </r>
       <r>   -12.7096     3.1716    20.9482 </r>
       <r>   -12.5831     3.1029    21.3406 </r>
       <r>   -12.4567     4.5123    21.9111 </r>
       <r>   -12.3302     2.7033    22.2529 </r>
       <r>   -12.2038     2.3730    22.5530 </r>
       <r>   -12.0773     5.1114    23.1993 </r>
       <r>   -11.9509     4.4489    23.7618 </r>
       <r>   -11.8244     4.5517    24.3374 </r>
       <r>   -11.6980     1.9676    24.5862 </r>
       <r>   -11.5715     2.2909    24.8759 </r>
       <r>   -11.4451     2.3624    25.1746 </r>
       <r>   -11.3187     4.4443    25.7365 </r>
       <r>   -11.1922     2.3049    26.0280 </r>
       <r>   -11.0658     3.1878    26.4311 </r>
       <r>   -10.9393     4.0812    26.9471 </r>
       <r>   -10.8129     4.7225    27.5442 </r>
       <r>   -10.6864     2.3928    27.8468 </r>
       <r>   -10.5600     3.2197    28.2539 </r>
       <r>   -10.4335     3.2089    28.6596 </r>
       <r>   -10.3071     4.5864    29.2396 </r>
       <r>   -10.1807     2.7783    29.5909 </r>
       <r>   -10.0542     3.6670    30.0545 </r>
       <r>    -9.9278     4.7566    30.6560 </r>
       <r>    -9.8013     5.1451    31.3066 </r>
       <r>    -9.6749     4.1707    31.8339 </r>
       <r>    -9.5484     4.0832    32.3502 </r>
       <r>    -9.4220     8.2565    33.3942 </r>
       <r>    -9.2955     7.1458    34.2978 </r>
       <r>    -9.1691     0.2812    34.3333 </r>
       <r>    -9.0427     0.0001    34.3333 </r>
       <r>    -8.9162     0.5232    34.3995 </r>
       <r>    -8.7898     2.6265    34.7316 </r>
       <r>    -8.6633     4.9515    35.3577 </r>
       <r>    -8.5369     6.3402    36.1594 </r>
       <r>    -8.4104     0.0596    36.1669 </r>
       <r>    -8.2840     1.0819    36.3037 </r>
       <r>    -8.1575     3.8993    36.7968 </r>
       <r>    -8.0311     4.7782    37.4009 </r>
       <r>    -7.9046     4.9282    38.0241 </r>
       <r>    -7.7782    10.2983    39.3262 </r>
       <r>    -7.6518     6.3056    40.1236 </r>
       <r>    -7.5253     6.3015    40.9204 </r>
       <r>    -7.3989     3.7070    41.3891 </r>
       <r>    -7.2724     3.4834    41.8295 </r>
       <r>    -7.1460     2.5263    42.1490 </r>
       <r>    -7.0195     4.7720    42.7524 </r>
       <r>    -6.8931     2.9034    43.1195 </r>
       <r>    -6.7666     4.3700    43.6721 </r>
       <r>    -6.6402     3.4249    44.1051 </r>
       <r>    -6.5138     7.2786    45.0255 </r>
       <r>    -6.3873    11.0577    46.4236 </r>
       <r>    -6.2609     5.3204    47.0964 </r>
       <r>    -6.1344     4.7791    47.7007 </r>
       <r>    -6.0080     2.3516    47.9980 </r>
       <r>    -5.8815    11.6249    49.4679 </r>
       <r>    -5.7551    10.3382    50.7751 </r>
       <r>    -5.6286     8.4710    51.8462 </r>
       <r>    -5.5022     7.7048    52.8205 </r>
       <r>    -5.3758     4.5116    53.3909 </r>
       <r>    -5.2493     6.2174    54.1771 </r>
       <r>    -5.1229     5.5066    54.8734 </r>
       <r>    -4.9964     7.1902    55.7825 </r>
       <r>    -4.8700    10.0012    57.0471 </r>
       <r>    -4.7435    11.6314    58.5179 </r>
       <r>    -4.6171    17.0783    60.6773 </r>
       <r>    -4.4906     9.5952    61.8906 </r>
       <r>    -4.3642     9.9480    63.1485 </r>
       <r>    -4.2378    10.4293    64.4672 </r>
       <r>    -4.1113    11.3910    65.9075 </r>
       <r>    -3.9849    12.6450    67.5064 </r>
       <r>    -3.8584     7.0017    68.3918 </r>
       <r>    -3.7320     7.9436    69.3962 </r>
       <r>    -3.6055     9.3089    70.5733 </r>
       <r>    -3.4791    14.7706    72.4409 </r>
       <r>    -3.3526     8.0525    73.4591 </r>
       <r>    -3.2262     7.0174    74.3464 </r>
       <r>    -3.0997     7.2097    75.2580 </r>
       <r>    -2.9733    11.8456    76.7559 </r>
       <r>    -2.8469     4.1142    77.2761 </r>
       <r>    -2.7204     7.8286    78.2660 </r>
       <r>    -2.5940    10.3561    79.5754 </r>
       <r>    -2.4675     5.9196    80.3239 </r>
       <r>    -2.3411     5.3635    81.0021 </r>
       <r>    -2.2146     8.2002    82.0390 </r>
       <r>    -2.0882     7.7584    83.0200 </r>
       <r>    -1.9617     7.3082    83.9441 </r>
       <r>    -1.8353     7.7840    84.9283 </r>
       <r>    -1.7089     5.8838    85.6723 </r>
       <r>    -1.5824     7.6906    86.6448 </r>
       <r>    -1.4560     5.5910    87.3517 </r>
       <r>    -1.3295     7.8652    88.3462 </r>
       <r>    -1.2031     3.3210    88.7661 </r>
       <r>    -1.0766     8.9273    89.8949 </r>
       <r>    -0.9502    14.7077    91.7547 </r>
       <r>    -0.8237     6.6784    92.5991 </r>
       <r>    -0.6973     5.4757    93.2915 </r>
       <r>    -0.5709     3.1829    93.6939 </r>
       <r>    -0.4444     3.8268    94.1778 </r>
       <r>    -0.3180     3.0147    94.5590 </r>
       <r>    -0.1915     3.5018    95.0018 </r>
       <r>    -0.0651     3.5156    95.4463 </r>
       <r>     0.0614     3.7864    95.9251 </r>
       <r>     0.1878     4.0394    96.4359 </r>
       <r>     0.3143     3.2806    96.8507 </r>
       <r>     0.4407     1.1802    96.9999 </r>
       <r>     0.5672     0.2991    97.0377 </r>
       <r>     0.6936     3.3564    97.4621 </r>
       <r>     0.8200     0.3825    97.5105 </r>
       <r>     0.9465     1.1957    97.6617 </r>
       <r>     1.0729     0.4676    97.7208 </r>
       <r>     1.1994     2.0106    97.9750 </r>
       <r>     1.3258     3.2849    98.3904 </r>
       <r>     1.4523     4.4707    98.9557 </r>
       <r>     1.5787     4.4288    99.5157 </r>
       <r>     1.7052     3.1026    99.9080 </r>
       <r>     1.8316     0.2007    99.9334 </r>
       <r>     1.9580     5.2918   100.6025 </r>
       <r>     2.0845     7.7655   101.5844 </r>
       <r>     2.2109     1.6971   101.7990 </r>
       <r>     2.3374     2.2333   102.0814 </r>
       <r>     2.4638     0.6370   102.1619 </r>
       <r>     2.5903     0.5200   102.2277 </r>
       <r>     2.7167     0.8080   102.3299 </r>
       <r>     2.8432     1.1733   102.4782 </r>
       <r>     2.9696     1.2340   102.6342 </r>
       <r>     3.0960     3.2125   103.0404 </r>
       <r>     3.2225     4.4168   103.5989 </r>
       <r>     3.3489     5.1714   104.2528 </r>
       <r>     3.4754     1.5408   104.4476 </r>
       <r>     3.6018     3.4381   104.8824 </r>
       <r>     3.7283     3.6216   105.3403 </r>
       <r>     3.8547     4.0773   105.8559 </r>
       <r>     3.9812     6.3944   106.6644 </r>
       <r>     4.1076     6.0024   107.4234 </r>
       <r>     4.2340     2.7510   107.7712 </r>
       <r>     4.3605     4.2484   108.3084 </r>
       <r>     4.4869     2.4845   108.6226 </r>
       <r>     4.6134     3.5707   109.0741 </r>
       <r>     4.7398     2.7021   109.4157 </r>
       <r>     4.8663     1.4125   109.5943 </r>
       <r>     4.9927     4.1042   110.1133 </r>
       <r>     5.1192     4.7344   110.7119 </r>
       <r>     5.2456     1.6338   110.9185 </r>
       <r>     5.3721     3.2645   111.3313 </r>
       <r>     5.4985     2.4669   111.6432 </r>
       <r>     5.6249     0.8445   111.7500 </r>
       <r>     5.7514     0.9592   111.8713 </r>
       <r>     5.8778     4.3361   112.4196 </r>
       <r>     6.0043     2.6339   112.7526 </r>
       <r>     6.1307     4.0806   113.2686 </r>
       <r>     6.2572     4.3957   113.8244 </r>
       <r>     6.3836     0.7295   113.9166 </r>
       <r>     6.5101     0.4517   113.9738 </r>
       <r>     6.6365     3.7623   114.4495 </r>
       <r>     6.7629     2.9875   114.8272 </r>
       <r>     6.8894     2.2335   115.1097 </r>
       <r>     7.0158     4.2345   115.6451 </r>
       <r>     7.1423     4.8431   116.2575 </r>
       <r>     7.2687     3.6837   116.7233 </r>
       <r>     7.3952     1.4010   116.9004 </r>
       <r>     7.5216     1.1531   117.0462 </r>
       <r>     7.6481     4.3498   117.5962 </r>
       <r>     7.7745     3.7580   118.0714 </r>
       <r>     7.9009     1.6786   118.2836 </r>
       <r>     8.0274     3.6809   118.7491 </r>
       <r>     8.1538     3.0847   119.1391 </r>
       <r>     8.2803     2.2752   119.4268 </r>
       <r>     8.4067     4.2055   119.9586 </r>
       <r>     8.5332     6.2187   120.7449 </r>
       <r>     8.6596     3.6344   121.2044 </r>
       <r>     8.7861     1.7449   121.4251 </r>
       <r>     8.9125     3.1846   121.8277 </r>
       <r>     9.0389     2.6979   122.1689 </r>
       <r>     9.1654     3.5743   122.6208 </r>
       <r>     9.2918     6.7918   123.4796 </r>
       <r>     9.4183     7.1780   124.3872 </r>
       <r>     9.5447     7.0726   125.2815 </r>
       <r>     9.6712     8.0794   126.3031 </r>
       <r>     9.7976    10.0940   127.5795 </r>
       <r>     9.9241     7.6302   128.5443 </r>
       <r>    10.0505     8.3823   129.6042 </r>
       <r>    10.1770    14.2155   131.4016 </r>
       <r>    10.3034    16.9735   133.5479 </r>
       <r>    10.4298    11.5738   135.0113 </r>
       <r>    10.5563     9.5131   136.2142 </r>
       <r>    10.6827    11.3666   137.6514 </r>
       <r>    10.8092     9.7869   138.8889 </r>
       <r>    10.9356     7.5931   139.8490 </r>
       <r>    11.0621     7.7774   140.8325 </r>
       <r>    11.1885     6.6426   141.6724 </r>
       <r>    11.3150     7.4418   142.6133 </r>
       <r>    11.4414     8.9013   143.7389 </r>
       <r>    11.5678     4.4400   144.3003 </r>
       <r>    11.6943     5.8909   145.0452 </r>
       <r>    11.8207     3.5517   145.4943 </r>
       <r>    11.9472     2.6111   145.8244 </r>
       <r>    12.0736     7.1282   146.7257 </r>
       <r>    12.2001     6.7429   147.5783 </r>
       <r>    12.3265     4.8262   148.1886 </r>
       <r>    12.4530     3.6847   148.6545 </r>
       <r>    12.5794     6.3287   149.4547 </r>
       <r>    12.7058     5.1527   150.1063 </r>
       <r>    12.8323     4.5985   150.6877 </r>
       <r>    12.9587     2.4906   151.0026 </r>
       <r>    13.0852     1.4657   151.1880 </r>
       <r>    13.2116     2.2873   151.4772 </r>
       <r>    13.3381     2.5291   151.7970 </r>
       <r>    13.4645     1.0066   151.9243 </r>
       <r>    13.5910     0.5915   151.9990 </r>
       <r>    13.7174     0.0075   152.0000 </r>
       <r>    13.8439     0.0000   152.0000 </r>
       <r>    13.9703     0.0000   152.0000 </r>
       <r>    14.0967     0.0000   152.0000 </r>
       <r>    14.2232     0.0000   152.0000 </r>
       <r>    14.3496     0.0000   152.0000 </r>
       <r>    14.4761     0.0000   152.0000 </r>
       <r>    14.6025     0.0000   152.0000 </r>
       <r>    14.7290     0.0000   152.0000 </r>
       <r>    14.8554     0.0000   152.0000 </r>
       <r>    14.9819     0.0000   152.0000 </r>
       <r>    15.1083     0.0000   152.0000 </r>
       <r>    15.2347     0.0000   152.0000 </r>
      </set>
     </set>
    </array>
   </total>
  </dos>
 </calculation>
 <structure name="finalpos" >
  <crystal>
   <varray name="basis" >
    <v>       4.26620007       0.00000000       0.00000000 </v>
    <v>       0.00000000      39.40950012       0.00000000 </v>
    <v>      -1.42206471       0.00000000       3.18109970 </v>
   </varray>
   <i name="volume">    534.83451311 </i>
   <varray name="rec_basis" >
    <v>       0.23440063       0.00000000       0.10478542 </v>
    <v>       0.00000000       0.02537459       0.00000000 </v>
    <v>       0.00000000       0.00000000       0.31435670 </v>
   </varray>
  </crystal>
  <varray name="positions" >
   <v>       0.99972635       0.00000783       0.00000000 </v>
   <v>       0.33324726       0.00000789       0.00000000 </v>
   <v>       0.49972635       0.03122317       0.00000000 </v>
   <v>       0.83324726       0.03122310       0.00000000 </v>
   <v>       0.99989858       0.06246133       0.00000000 </v>
   <v>       0.33301183       0.06245907       0.00000000 </v>
   <v>       0.49966823       0.09369861       0.00000000 </v>
   <v>       0.83324927       0.09370033       0.00000000 </v>
   <v>       0.99972692       0.12492436       0.00000000 </v>
   <v>       0.33326526       0.12492629       0.00000000 </v>
   <v>       0.49993855       0.15617451       0.00000000 </v>
   <v>       0.83312972       0.15617360       0.00000000 </v>
   <v>       0.99968157       0.18741802       0.00000000 </v>
   <v>       0.33345729       0.18742148       0.00000000 </v>
   <v>       0.49976508       0.21863473       0.00000000 </v>
   <v>       0.83340337       0.21863213       0.00000000 </v>
   <v>       0.99982960       0.24990082       0.00000000 </v>
   <v>       0.33333668       0.24990181       0.00000000 </v>
   <v>       0.49924169       0.28117075       0.00000000 </v>
   <v>       0.83390417       0.28116934       0.00000000 </v>
   <v>       0.00216473       0.31214964       0.00000000 </v>
   <v>       0.33091401       0.31214843       0.00000000 </v>
   <v>       0.50011866       0.34329153       0.00000000 </v>
   <v>       0.83287698       0.34329222       0.00000000 </v>
   <v>       0.00011866       0.68793945       0.00000000 </v>
   <v>       0.33287698       0.68793876       0.00000000 </v>
   <v>       0.50216473       0.71908037       0.00000000 </v>
   <v>       0.83091401       0.71908157       0.00000000 </v>
   <v>       0.99924169       0.75005929       0.00000000 </v>
   <v>       0.33390417       0.75006070       0.00000000 </v>
   <v>       0.49982960       0.78133017       0.00000000 </v>
   <v>       0.83333668       0.78132918       0.00000000 </v>
   <v>       0.99976508       0.81259525       0.00000000 </v>
   <v>       0.33340337       0.81259786       0.00000000 </v>
   <v>       0.49968157       0.84381198       0.00000000 </v>
   <v>       0.83345729       0.84380853       0.00000000 </v>
   <v>       0.99993855       0.87505551       0.00000000 </v>
   <v>       0.33312972       0.87505641       0.00000000 </v>
   <v>       0.49972692       0.90630566       0.00000000 </v>
   <v>       0.83326526       0.90630372       0.00000000 </v>
   <v>       0.99966823       0.93753236       0.00000000 </v>
   <v>       0.33324927       0.93753065       0.00000000 </v>
   <v>       0.49989858       0.96876969       0.00000000 </v>
   <v>       0.83301183       0.96877194       0.00000000 </v>
   <v>       0.92883304       0.37417703       0.00000000 </v>
   <v>       0.40408709       0.37417364       0.00000000 </v>
   <v>       0.42883310       0.65705395       0.00000000 </v>
   <v>       0.90408811       0.65705735       0.00000000 </v>
  </varray>
  <varray name="selective"  type="logical" >
   <v type="logical" >  T  T  F </v>
   <v type="logical" >  T  T  F </v>
   <v type="logical" >  T  T  F </v>
   <v type="logical" >  T  T  F </v>
   <v type="logical" >  T  T  F </v>
   <v type="logical" >  T  T  F </v>
   <v type="logical" >  T  T  F </v>
   <v type="logical" >  T  T  F </v>
   <v type="logical" >  T  T  F </v>
   <v type="logical" >  T  T  F </v>
   <v type="logical" >  T  T  F </v>
   <v type="logical" >  T  T  F </v>
   <v type="logical" >  T  T  F </v>
   <v type="logical" >  T  T  F </v>
   <v type="logical" >  T  T  F </v>
   <v type="logical" >  T  T  F </v>
   <v type="logical" >  T  T  F </v>
   <v type="logical" >  T  T  F </v>
   <v type="logical" >  T  T  F </v>
   <v type="logical" >  T  T  F </v>
   <v type="logical" >  T  T  F </v>
   <v type="logical" >  T  T  F </v>
   <v type="logical" >  T  T  F </v>
   <v type="logical" >  T  T  F </v>
   <v type="logical" >  T  T  F </v>
   <v type="logical" >  T  T  F </v>
   <v type="logical" >  T  T  F </v>
   <v type="logical" >  T  T  F </v>
   <v type="logical" >  T  T  F </v>
   <v type="logical" >  T  T  F </v>
   <v type="logical" >  T  T  F </v>
   <v type="logical" >  T  T  F </v>
   <v type="logical" >  T  T  F </v>
   <v type="logical" >  T  T  F </v>
   <v type="logical" >  T  T  F </v>
   <v type="logical" >  T  T  F </v>
   <v type="logical" >  T  T  F </v>
   <v type="logical" >  T  T  F </v>
   <v type="logical" >  T  T  F </v>
   <v type="logical" >  T  T  F </v>
   <v type="logical" >  T  T  F </v>
   <v type="logical" >  T  T  F </v>
   <v type="logical" >  T  T  F </v>
   <v type="logical" >  T  T  F </v>
   <v type="logical" >  T  T  F </v>
   <v type="logical" >  T  T  F </v>
   <v type="logical" >  T  T  F </v>
   <v type="logical" >  T  T  F </v>
  </varray>
  <nose>
   <v>      -3.00000000       0.00000000       0.00010000       0.00010000 </v>
  </nose>
 </structure>
</modeling>
